LAMMPS data file via write_data, version 7 Feb 2024, timestep = 220000, units = lj

4000 atoms
1 atom types

0 15.424502472009342 xlo xhi
0 15.424502472009342 ylo yhi
0 15.424502472009342 zlo zhi

Masses

1 1

Pair Coeffs # lj/cut

1 1 1

Atoms # atomic

273 1 0.6133597011861028 0.5275838773053787 0.903699971172363 1 1 0
1091 1 1.200491251319364 1.0296015657648687 0.12638490797681926 0 1 0
3442 1 0.10034090468993805 1.1560584983699824 0.20127041131097975 0 0 1
359 1 1.2755781778780082 1.3456007840058584 1.16873288637576 1 0 0
1075 1 1.7051218193384285 0.38151545346880494 0.8165449060077579 1 0 0
3753 1 2.356354828702769 1.2431005510117585 1.092709491737793 1 1 1
2157 1 2.7887059935661505 0.24550403750292057 0.7120706286528499 1 0 1
3183 1 2.2650608896372817 0.8860824771743044 0.0035157425389766433 1 0 1
1316 1 3.8136922104439894 0.41998232029689414 0.9062059671590601 1 0 0
282 1 3.2968140185442247 1.0444084219182237 0.19547636816141967 0 1 0
3245 1 3.423415226412169 1.339595428296377 1.1963655870682302 0 0 1
2656 1 4.4981591325428925 1.2623923285296856 1.1470540090219814 0 1 1
129 1 4.909530278772372 0.33632219683528175 0.8280017086415058 0 0 0
3973 1 4.366885374134719 0.9485330907050433 0.13267270011904694 1 2 1
266 1 5.4342515408085434 0.8641538102769792 0.06768162284616497 0 1 0
250 1 5.563827720539719 1.1488615102746587 1.0846245415294542 0 1 0
2405 1 6.553561255591632 1.165950522892078 0.8718383296562733 -1 0 0
3758 1 6.879191621748968 0.20147137116545052 0.6112319267709493 0 0 1
412 1 5.9122340190753935 0.05944556087222459 1.2244860522410035 0 0 0
371 1 7.571048824901811 1.0580010908752873 0.8095476091842193 0 1 0
2307 1 7.953565156352057 0.07519262722003446 0.5317593220903652 0 1 0
404 1 8.599434082487468 0.9636192157811547 0.7368112698425873 -1 0 0
3780 1 9.651123182643596 0.844326490389168 0.6663670930996859 0 0 1
693 1 10.704500585166592 0.7383557811375352 0.5892530812293765 -1 1 0
1958 1 11.163378787422443 0.14097013250976215 1.3250808235793647 0 1 0
3556 1 11.775944355381368 0.5995712256205058 0.5456002706466572 0 1 1
3933 1 12.275964984366103 0.014432448394984207 1.309196034736185 -1 1 0
2077 1 12.865177847601188 0.49597919487772096 0.5313757639922329 0 0 1
1102 1 13.938815233557376 0.37982453089166734 0.5054009660594507 0 1 0
3488 1 13.46827207501442 1.361849517079577 0.7337437371359561 -1 1 0
3078 1 14.943393159344375 0.6741809701220443 0.9844919428100399 0 1 1
465 1 14.433156533102077 1.3008086917474078 0.26345881983249836 0 0 0
2650 1 0.1881711063186346 1.4754050617186314 1.2707287302100356 1 0 1
1922 1 0.7627928158604245 1.9790007554987294 0.47161224956742953 0 1 0
548 1 0.34556472576777325 2.54327397832052 1.3493780165083316 2 0 0
2141 1 1.4174220122332064 2.4319429637881176 1.2713502062672337 1 0 0
3264 1 2.461912116373178 2.3838547621619206 1.3062579229242997 1 1 1
2044 1 1.8471439196332873 1.8901200450719944 0.38855504850149303 1 0 0
3802 1 2.9092528349663485 1.9614790779629019 0.4828379427292941 0 0 1
332 1 3.5488451917149515 2.3819658075518024 1.2690704575702332 0 1 0
1053 1 3.975727688651803 1.895867879223782 0.442864688561873 0 0 -1
2885 1 4.62579005627984 2.3248231061350246 1.2023596480926322 0 0 0
3697 1 5.02197202928636 1.7984887483779448 0.367979256785136 0 0 1
2703 1 6.055940135441211 1.7627426619621613 0.2193339233341376 1 0 1
2477 1 5.725022580212725 2.227485905579006 1.1063637151077648 1 0 0
291 1 6.836543021028822 2.1782016162271205 1.0172966610452263 0 1 0
2102 1 7.113724899557549 1.688223045712724 0.12049544873382403 0 0 0
3536 1 7.913883960376402 2.077133088433057 0.9407571034829605 0 0 1
937 1 7.36850002432078 2.719843678138776 0.22666390664350344 0 0 0
296 1 8.159328781679173 1.5681102000232143 0.026406902872042632 0 1 0
3363 1 8.466344610251967 2.5907055917140323 0.14060463063135842 -1 0 1
986 1 9.007874998122569 1.9310203441415517 0.8733751543980968 0 0 0
2135 1 9.580311054684385 2.43611240653927 0.06161494264671659 0 0 0
2874 1 9.700232810840461 2.7676274535858703 1.0907773497210707 0 0 1
865 1 10.124506314384073 1.7797317459748232 0.8089260762334498 0 0 0
2834 1 10.843338633187674 2.593458356989402 1.0009999913278604 0 0 1
545 1 11.263066980533527 1.6204742271195 0.7524253773606462 0 -1 0
2150 1 12.376600975281754 1.4802689201169983 0.7195047373927512 0 0 0
2394 1 11.935006079626515 2.4688393810046216 0.9324207442038784 0 1 0
1301 1 13.015433633797807 2.3604888893542286 0.8769500950612459 0 0 1
2817 1 14.05312105116957 2.2622329586643013 0.6532348504860849 -1 0 0
3952 1 15.124243291183198 2.1171644004755548 0.5662155867219144 0 1 1
2959 1 14.52867917090587 1.6386331403178294 1.3623005714705931 1 0 1
1531 1 0.8764661731710672 3.0467409739307656 0.5295902101831907 0 1 1
3317 1 0.48043639099517077 4.042693141595312 0.8591066460567147 1 0 0
1259 1 1.9363972139639103 3.033567526238534 0.5616677351734494 0 0 0
2785 1 1.5413326870753856 3.9781696923350256 0.8374950234177391 0 1 1
3272 1 2.612713611507679 3.9324150436551872 0.8125833900124944 1 0 1
3365 1 4.101009091905586 2.9498353438881177 0.47136095296459996 0 0 1
3185 1 3.0269022102039638 3.0057631600659045 0.5361912473911706 1 0 0
936 1 3.684901888696043 3.8759255337498355 0.7786882529754243 0 0 0
1494 1 5.183862624594689 2.8680254795684466 0.4077975013245596 1 1 0
1491 1 4.759797762023709 3.8073639255815164 0.7203256830351912 0 0 0
923 1 6.272260569115257 2.804662344701285 0.32457039875569665 0 0 0
220 1 5.841633348913155 3.7263420461008003 0.6525943454394744 0 1 0
3182 1 6.928741539547724 3.6504984581308766 0.5760716237153443 0 0 1
3550 1 6.374904316782639 3.0893497660716287 1.3583322453335056 0 0 1
1498 1 7.45965692306882 3.01696598031252 1.2635148408206731 0 1 0
325 1 8.028265704693823 3.5511919057764416 0.46919347017236335 -1 0 0
1508 1 8.582345335462746 2.9191166659550687 1.170089146482024 0 1 0
3627 1 9.176176695425319 3.4154375719830794 0.39772101811271243 0 0 0
277 1 10.336557731120434 3.2138629177712863 0.24514901630341213 0 0 0
191 1 10.009150415897704 3.805152321138371 1.051873692547327 0 0 0
1477 1 11.043415038613727 3.694601310810379 0.9845818080166239 0 1 0
1110 1 11.42030885724774 3.101579154716463 0.19987288764839284 0 1 0
2967 1 12.093163561325246 3.5756154255564745 0.9096872907529052 -1 1 1
2627 1 12.481288645461445 2.9664075525097777 0.11380845035698661 0 1 1
598 1 11.558514887935486 4.1915669422411295 0.17333794747050424 0 0 0
1668 1 12.61201984056228 4.068823437925529 0.07903202398358028 0 0 0
1902 1 13.151761096605354 3.444394940706574 0.8112929085007502 0 0 0
1211 1 14.20340618003209 3.3153786346884973 0.71196455998903 0 0 0
1335 1 15.242218183093257 3.187493039884608 0.6139850989569463 0 0 1
1982 1 14.851495461715013 4.166168044516702 0.9182107211042859 0 1 0
3645 1 1.116724701423527 4.9265516354268355 1.1369480043995945 0 0 1
1505 1 1.0076206507782313 4.6216468610299115 0.10280978040741892 1 0 1
3192 1 0.05241252837364902 5.0181949533807995 1.16230120134037 1 0 1
3253 1 0.5852425000853577 5.561508043524668 0.38681814867331044 0 0 1
1002 1 2.1773501543693636 4.863598849740081 1.1057803405378412 0 0 0
71 1 1.6484848619195438 5.497516355497707 0.35807672032857824 1 0 1
2472 1 2.7121655165892564 5.412146773598471 0.34581237779067925 1 0 1
3498 1 2.0795253984965516 4.554687868952809 0.0911151843665911 1 1 1
2015 1 3.247621631033939 4.804169583930919 1.0747143335053824 0 0 0
2583 1 3.7893610319558246 5.349996005763403 0.3099997244324993 0 0 1
924 1 3.1434805898212197 4.492924896758529 0.05136729839992088 0 1 0
2435 1 4.3175555532983205 4.73850349876279 1.0336180307271259 0 0 1
1384 1 4.845020093510462 5.321788351191553 0.2858822970202462 0 0 0
961 1 5.377388597946115 4.688575903513867 0.978271844293299 0 0 0
3279 1 4.225733031372902 4.426437226695879 0.008553544733710946 1 1 1
2857 1 6.432652642678367 4.612613284054312 0.912783874761439 0 0 1
3381 1 5.907828457164949 5.239087831080417 0.20988099833530416 0 0 1
3387 1 6.973900782693195 5.156617544796048 0.1427270751493633 1 0 0
3996 1 5.996752169180842 5.560726579285029 1.2431544040866196 0 1 1
2132 1 7.063097155440294 5.463923205872165 1.1820745237278536 0 0 0
2426 1 7.489058097957702 4.525588783390747 0.8433131245675547 0 -1 1
2605 1 8.118642488331682 5.397297324573587 1.1198356612475968 0 0 1
333 1 8.021824648514738 5.067640587563196 0.0758864017586657 0 1 0
424 1 8.531805040615005 4.4508120955269685 0.7478950360973884 -1 0 0
1103 1 9.45500355843815 4.45335580745782 0.30507917922079336 0 0 0
248 1 9.003915627728674 5.404770608332946 0.567406239870671 -1 0 0
1753 1 9.556984958349668 4.779113844002048 1.2993917897803933 0 0 0
2621 1 10.49957774597819 4.331223218508027 0.23726370082864331 0 0 0
2221 1 10.07659234511278 5.312267067783387 0.4838227562123237 0 0 1
625 1 11.146084275601012 5.181279633883355 0.4501775013260691 0 1 0
3636 1 10.606792800274684 4.685070507204668 1.2416436964555722 0 0 1
504 1 12.203628871453981 5.0543491481926495 0.35498137039099137 -1 0 0
2126 1 11.66213511201892 4.559292852398188 1.1845395626578894 0 0 1
2832 1 12.297081457911082 5.412061061714098 1.3812119834806749 0 0 1
2581 1 13.789216988776037 4.299429055049599 0.9963183590964788 0 0 0
3529 1 13.260355972336667 4.923779348097135 0.2803836336275356 -1 1 1
3070 1 13.369865792834688 5.283904855958274 1.3106502738995078 0 1 1
345 1 12.72541495867594 4.438387073709367 1.0986864156548333 0 1 0
2385 1 15.376196837060869 4.673466194620296 0.12554283895749413 0 0 0
751 1 14.426155436421483 5.155329601549747 1.2211066033455313 0 1 0
3908 1 14.310959291566395 4.806763281213749 0.2051948294365096 0 1 1
3919 1 0.1810154172711745 6.510593056509781 0.6558417312603386 0 0 1
897 1 1.2449482403038756 6.439478489730978 0.6396370764489008 0 -1 0
1017 1 0.6978482233900235 5.884699633101674 1.3866001708727778 1 0 0
3901 1 2.3077134619283397 6.35925448244328 0.6056303076863655 0 1 1
981 1 1.7661609423846514 5.809795449242881 1.3781703904455969 0 0 0
882 1 2.823629493111547 5.734498877235473 1.3624767701035083 0 0 0
3777 1 3.888472347176507 5.659289529190076 1.336638547277453 0 0 0
1856 1 3.3622014507923184 6.269724409077141 0.5965587568599073 0 0 1
1044 1 4.938901890875098 5.642353932585149 1.309606823107899 0 1 0
20 1 4.401886980023074 6.2999558393175565 0.6137253422221919 1 0 -1
2763 1 5.465520201405219 6.180916522930093 0.538237953039249 0 1 0
3565 1 6.52948716516145 6.099708034320946 0.47711106039978596 -1 0 1
214 1 7.609762966210652 6.02452640038277 0.41830800288376907 0 0 0
565 1 7.185442153478313 6.970252968479687 0.753866366052905 -1 0 0
1759 1 8.031155603069932 6.9960200715777745 0.12148258597628653 1 0 0
3651 1 9.641834917448161 6.2602104953742215 0.7843758154157576 0 -1 1
3048 1 8.565789632845775 6.367486346994675 0.845640817077131 -1 0 1
2228 1 9.109734609099633 6.885468253083535 0.0505644394818089 0 0 1
2516 1 10.717146319359667 6.155349376199019 0.7132312798475874 0 0 1
3341 1 11.787860668114234 6.020152443100165 0.663877405041659 0 0 1
2187 1 12.422744136319071 6.89082981241914 0.8473414174265573 0 0 1
3088 1 11.371779378851262 7.002045824016296 0.9436485830952713 -1 0 2
1963 1 12.846708444617741 5.8881737742218 0.5713436802611096 -1 1 0
2975 1 13.474705815394566 6.751632677344854 0.7773429637853833 -1 0 1
503 1 13.895032641792767 5.768523200311954 0.5075473782489557 0 0 0
636 1 14.950875458963681 5.6570724396455185 0.41090764844892314 0 0 0
240 1 14.545764719592169 6.6325187641735885 0.7231025314687919 0 0 0
152 1 0.819011397637515 7.365638636282414 0.8972108717367525 1 0 0
1058 1 0.305159926502826 8.010804351922014 0.15948625500509064 1 0 -1
3406 1 0.4208926589735569 8.339856288952882 1.1671768232625244 0 0 1
2535 1 1.3716872604771857 7.907634777224085 0.12808270793867477 0 0 1
1320 1 1.4870494862030745 8.236650586300485 1.1311263517809955 1 0 0
3046 1 1.894751107906954 7.29750104942559 0.8762241775064771 0 0 1
270 1 2.5498265193550735 8.13218468960908 1.0946168890517896 1 0 0
3474 1 2.435571888867088 7.813453805613731 0.07508748266521756 1 0 1
1673 1 3.996328203011033 7.29227400399871 0.9788286464052984 1 0 0
1011 1 2.958979884686124 7.195680254366043 0.8587987759350666 0 0 0
2626 1 3.470169080051831 7.92980070033134 0.2614836568924675 0 0 0
1444 1 3.5907501783153575 8.274085637067227 1.2872867053874242 0 0 0
678 1 5.053208087975579 7.15630016581971 0.8739778675309546 1 0 0
2657 1 4.648845499672201 8.140926110661583 1.1989643760129116 0 -1 0
3087 1 4.530382267468265 7.796817262303769 0.15370762311712977 0 0 1
2139 1 5.590883144820801 7.692754098379287 0.08490219845971027 0 0 0
1120 1 6.120388594763838 7.047082676480386 0.8084050368807669 1 0 0
3820 1 5.717249477035313 8.024184057705396 1.1065861290655947 0 0 1
905 1 6.788521597362254 7.92696183362909 1.0840331847584708 0 -1 0
2345 1 6.667656901598255 7.599296745462408 0.038775076423194874 0 0 0
599 1 8.155724657780407 7.32282886040579 1.129153915685672 0 0 0
2838 1 7.632044720207094 7.951883027729952 0.41402191712016906 0 -1 1
841 1 9.229470177149677 7.2191147632209525 1.074247097931853 -1 -1 1
3143 1 8.700314872187297 7.854640640757166 0.3306122946350884 0 0 1
674 1 9.756606348361473 7.7252765766276665 0.2712250007546669 0 0 0
2974 1 8.794261743186516 8.194003083113628 1.346909800608419 -1 0 1
1998 1 9.87361166727303 8.079425312889343 1.3097830125365653 1 0 1
614 1 10.288890407938391 7.124827705270897 1.0166228194853386 -1 0 0
3894 1 10.829267355315652 7.602700770917664 0.20673314847054997 0 0 1
2795 1 10.940299837756609 7.97329317750726 1.2065733381506096 0 0 1
3072 1 11.910085478760031 7.510260692227738 0.1354305860771659 0 0 1
1587 1 12.002525709811101 7.864485730120312 1.140948385666647 0 1 0
2312 1 12.548742205617867 8.34865321980596 0.3332183938312643 0 1 1
3023 1 13.077743794092909 7.732612715952676 1.0701579161554176 0 0 1
1591 1 13.612651500210312 8.224744542386233 0.2612478092384265 0 0 0
3539 1 12.967498996084299 7.364639174756388 0.04874379652348231 0 0 1
3338 1 14.134577675854885 7.606967968126824 1.0018186191825085 -1 0 1
1943 1 15.18509908922369 7.475696614606884 0.9356607735701732 -1 0 0
89 1 14.659743261730782 8.111648724964944 0.20663610442023875 -1 0 0
3040 1 0.9628028254401687 8.86411882097778 0.3874435044741919 1 0 1
1603 1 1.0946938753502915 9.192411496173662 1.384927281541008 0 -1 0
2762 1 2.029636931971923 8.738635033540897 0.3286535901474983 0 0 1
3603 1 1.6356996849446674 9.688256864810581 0.5801384104552318 -1 -1 1
3773 1 2.1614153827084097 9.072999047735415 1.3384483260329911 0 0 1
3142 1 3.04343207156502 8.919496544717806 0.5867423110733382 0 1 0
2355 1 4.127135140825881 8.77579750065486 0.4806611754522994 1 0 1
3420 1 3.7084208956532727 9.749758804308968 0.7921377552708075 0 0 1
2063 1 5.191481329703146 8.660317502919971 0.3957203439208349 0 0 0
1198 1 4.786767420110406 9.630463748166369 0.7290373633188749 1 1 0
264 1 6.265401556762021 8.5712100882095 0.3582733860943591 0 0 0
1692 1 5.84808831462648 9.506011913334717 0.6451225554365194 0 0 0
2381 1 6.371586620526268 8.879572544122302 1.4016584819827984 0 1 1
304 1 7.2155470803801975 8.920897598472918 0.7099538048834084 0 0 0
3983 1 8.281868772360086 8.808347041281053 0.6239042271816369 0 1 1
3195 1 7.876247642718785 9.779231874276856 0.929118581578153 0 0 1
2835 1 9.34449005451528 8.691382895273264 0.5522249070774486 0 -1 1
3808 1 8.936131265092135 9.662760890953011 0.8464455288776132 -1 0 1
3625 1 10.408422144727872 8.579838443426125 0.4915263987748417 0 0 1
2588 1 10.002888685307878 9.547042157818389 0.7537129236015307 0 0 1
3741 1 11.074389656302683 9.433217559909629 0.6977446574150357 0 -1 1
1005 1 11.479332261784377 8.465524255004473 0.39860743276453764 -1 0 0
1970 1 12.139927442434166 9.305221905981194 0.6332794367134941 -1 0 1
2113 1 13.211474374198039 9.193225140676466 0.5515827428337374 0 0 1
2719 1 13.726996729451573 8.563896640905257 1.2835949451711373 0 0 1
1711 1 12.662412966816632 8.68493195883124 1.3498292222939645 1 0 0
656 1 14.78855004298805 8.457229744972878 1.2179814940821643 -1 0 0
1003 1 14.256278022572479 9.087205197873008 0.4811236846937479 -1 0 0
1778 1 15.32954083634119 8.96841257486935 0.41867201738505333 -1 -1 0
1977 1 0.5779473813735749 9.813759606296912 0.6332776785262206 0 0 1
3886 1 1.2495831133731776 10.644224768348716 0.8511164059925796 0 0 1
3144 1 0.15988477214779268 10.763390157638856 0.907102171566406 0 0 1
1073 1 2.6460597788881297 9.914721694611424 0.88880926803808 1 0 0
3198 1 2.2418664141496554 10.887217426739863 1.1872502317499003 1 1 1
2660 1 2.117968407282988 10.566411600678164 0.15328668863274159 0 0 1
3466 1 3.313115474973072 10.735901424370693 1.0943197549533785 0 0 1
712 1 3.18085676948574 10.407007680357708 0.07011643652687215 1 0 0
534 1 4.387057218508878 10.60635638289651 1.0360834022051022 0 0 0
590 1 5.450532700926413 10.483829556334435 0.9555148494463268 0 0 0
175 1 4.915799221259928 11.10912663022025 0.22362104719730166 0 0 0
3062 1 6.797996192510008 9.875795190887994 1.0001173859107007 0 0 1
2933 1 6.403159437985292 10.84930021445322 1.2996927584457818 0 0 1
2639 1 6.287333565566177 10.479237398139388 0.2680480132606358 0 0 1
1412 1 7.461954658037777 10.747665232335349 1.2142114422979602 0 0 0
3623 1 7.34676321647505 10.383145287015768 0.19546541028433473 0 -1 1
2558 1 8.426594680302967 10.265644975030234 0.11128668937582932 0 0 1
2354 1 8.536616280772312 10.622185889341745 1.1417211730977228 0 0 1
1854 1 9.606877471673563 10.522577704293132 1.046695467061866 0 -1 0
2687 1 9.08386804344167 11.117234956972077 0.3190465483795494 0 0 1
2741 1 9.501802432776378 10.151742305829615 0.031116228245176653 0 0 1
2049 1 10.152620400445734 11.00478697095304 0.24776576780988283 0 -1 1
3925 1 10.672840611530743 10.393776853641983 0.9781920907575774 -1 0 1
365 1 11.21334451943083 10.899289778621807 0.16573858262358324 -1 0 0
1836 1 11.721123900278807 10.285165150256582 0.90368743438171 0 0 0
3 1 12.387275416231931 11.135782092635123 1.1034287713425852 0 -1 -1
1451 1 12.27447108242162 10.777324795373989 0.09068628961137037 -1 0 0
808 1 12.790762641193746 10.149941006108707 0.8339247230905613 -1 -1 0
3706 1 13.86148974412372 10.051541474125875 0.7523728409735688 0 0 1
3682 1 13.4558517435955 11.009024280508308 1.0495907754277563 -1 0 1
3359 1 13.351946927861016 10.671342266574701 0.04002301356670791 0 0 1
1911 1 14.924489412985302 9.927503314747934 0.6936046592815261 0 0 1
2064 1 14.529303875343254 10.89218612372582 0.970458439684137 -1 -1 0
326 1 0.7198154700423739 11.273922269485853 0.1029828911743948 -1 0 1
1082 1 0.8395987875187915 11.611516523764998 1.1183515063705527 0 0 0
344 1 0.3132217324841613 12.238246830825695 0.37473785523285263 0 0 0
1707 1 1.2928148495015739 12.516374895817055 0.7341353892531836 1 -1 0
1518 1 1.7079568197307233 11.536260799021187 0.4479697217356968 1 0 0
3511 1 2.379905351005974 12.363774103394077 0.6796811955105885 0 0 1
3419 1 2.778832111819062 11.38138241838231 0.3829332102229626 1 0 1
939 1 3.850336363020238 11.243973160723993 0.3045562337459932 0 -1 0
743 1 3.453737770203026 12.220875245657052 0.5925687887011044 0 0 0
1583 1 3.975150798189095 11.572978661303672 1.3243494760069985 0 0 0
3397 1 5.058113281432499 11.451150922683471 1.259003778983266 1 0 1
2802 1 5.4841781878681735 12.403452035773778 0.8715873868329698 0 -1 1
1964 1 4.521827385631534 12.074778488169736 0.5307677523127281 0 1 1
2824 1 5.893272033715854 11.447111927541501 0.5722399936204008 0 -2 1
3936 1 6.552907593868387 12.304653213833824 0.7679391277995335 0 0 0
1063 1 6.957069032817892 11.345326392683173 0.47125444578270154 0 0 0
2245 1 8.013613129755608 11.226089567419722 0.40281554549663534 0 0 1
2548 1 7.623150244897495 12.185258285526407 0.6866963513101328 0 -1 1
2291 1 8.684888093529747 12.080048388373667 0.6107793725230181 0 0 1
2272 1 9.191769756240163 11.47717922937822 1.3404589039279802 0 0 0
2699 1 9.738258438009904 11.976787442399031 0.5308003250312394 0 0 0
1146 1 10.801500683398322 11.876382018678775 0.4415623272498622 0 0 1
2987 1 10.271319519114433 11.379704318922084 1.2587704616379076 0 0 1
957 1 11.337348903238166 11.252438660279953 1.1761690650363867 0 0 0
622 1 11.87005027676184 11.750014458275048 0.3658097799136373 -1 0 0
3327 1 11.963012699059503 12.100749434485286 1.3856590768231964 -1 -1 1
837 1 12.51885645412549 12.606095850635745 0.5785528202010116 0 -1 0
81 1 12.930161672735991 11.630745298487593 0.31202652971698874 -1 -1 0
1060 1 13.587152961705467 12.484304451035516 0.519202118367798 0 0 0
1411 1 13.031804217166474 11.980907918998147 1.326212514001128 0 -1 0
3675 1 14.001141075701996 11.525457182146422 0.2580813206252204 0 -1 1
2861 1 14.122378470845584 11.85888007990502 1.2580516448251662 0 -1 1
1709 1 15.068568242673729 11.398840841608227 0.1776052777008913 -1 -1 0
3051 1 15.194374108944114 11.727202775864189 1.1851901518040435 -1 0 1
2776 1 14.670924956130916 12.372234413326527 0.45390655374638916 -1 0 0
1881 1 0.8914876428741466 13.50353396810082 1.0386772612543753 0 0 0
45 1 0.7786570712147967 13.152186124141558 0.033007052853209574 0 -1 0
966 1 2.520735011262828 13.846887421546363 0.18357279451615646 0 -1 0
3833 1 1.9605408696628184 13.33767646771175 0.9651028787341329 1 -1 1
999 1 1.4507706613050217 13.988481413001255 0.2568655972935092 1 -1 0
2226 1 3.048521947061434 13.201546081425912 0.8966621470962017 1 0 0
2543 1 4.1240272092734385 13.047696712178805 0.8114008733415536 0 0 0
683 1 3.598465655648457 13.680105759874404 0.08463548524449352 0 0 0
1135 1 4.578535475024877 13.954029502979921 0.40458783829592954 0 0 0
2419 1 5.102423433881231 13.366586916324179 1.1434442951124213 0 -2 0
844 1 4.972389151558322 13.003459669340621 0.12220457996453209 -1 0 1
120 1 5.653934359833876 13.860197778492845 0.3395569131699615 1 -1 0
1187 1 6.156948778090176 13.265764154541666 1.066339848167321 0 0 0
1511 1 6.697960652098253 13.746534132191835 0.22615324085216795 0 -1 1
3959 1 6.0369553081878085 12.906443881733226 0.035520819240254235 1 0 1
575 1 7.216859179721491 13.146465640872337 0.969543934091477 0 0 0
3460 1 8.27938759774561 13.048772646959124 0.8872106909005395 0 0 1
3691 1 7.767793564462593 13.635377881746885 0.13001744366677437 0 -1 1
337 1 7.884002732055948 14.0161436675469 1.1485333255223733 0 0 0
1078 1 8.933860032901048 13.915155827961327 1.062260513012837 0 0 0
1025 1 9.326796026361876 12.940042135427092 0.7935452020822555 0 0 0
3076 1 8.832656113848207 13.54561355447713 0.05568977909439647 0 0 1
1629 1 9.981488812100025 13.800973200701634 0.9855841160756151 0 -1 0
1655 1 10.387188058945162 12.825656924588207 0.729633583826943 0 -1 1
2872 1 11.034159895586116 13.699276166133055 0.8875738825407693 0 -1 1
3362 1 11.454631226565628 12.727466304997868 0.6526743551425758 -1 0 1
1386 1 12.09549398732839 13.574412157502813 0.8344869664838122 0 0 0
3684 1 13.174326162462009 13.459268634637452 0.8024761154699639 -1 -1 1
1637 1 14.255555198955438 13.331877483759058 0.7387631659668931 0 -1 0
3803 1 15.324183189122396 13.212638433036018 0.6713554739744017 0 0 0
112 1 0.36860854525342396 14.14337750406374 0.3211863839566805 0 -1 0
56 1 1.0423123256833207 14.971853976992717 0.5595157074823637 0 0 1
2414 1 0.456207848299836 14.456030756027722 1.3476294874234922 0 -1 1
3493 1 1.5613669854858427 14.311593473040803 1.2659872517245363 0 0 1
2884 1 2.6393104627508612 14.179018587664533 1.1802267221445752 0 0 0
96 1 2.1175743555273296 14.827731204215075 0.47657781483271544 0 -1 0
2232 1 3.7164158145967763 14.029859189286016 1.1074519465763868 1 0 0
179 1 3.192670439596019 14.669958531866717 0.3740143002420775 1 -1 0
920 1 4.19882123995863 14.901908501089002 0.6074075124814385 1 -1 0
1666 1 5.25331444220156 14.807298981827772 0.6361678830822529 0 -1 0
3779 1 4.704016633808851 14.27650064447572 1.4161906851914112 0 -1 1
973 1 6.835439046964731 14.098939765415626 1.2361752958938483 0 -1 0
3173 1 6.315157188159344 14.7154622377353 0.5546142191060535 0 0 1
3980 1 5.776107798574597 14.229624628604027 1.3713738669232542 0 0 1
1462 1 7.3697340063575005 14.598931529306993 0.38409529922774605 0 -1 0
2294 1 7.305720812805989 15.06093291161069 1.3380335722625702 0 0 0
90 1 8.398362919191426 14.956627141781505 1.2791370423448043 0 -1 0
3562 1 8.418044383271168 14.517747626308832 0.322957098544747 -1 0 0
2462 1 9.019162741760939 15.414766949495732 0.47752023698719936 0 -1 1
1978 1 9.476446347499781 14.410003965128041 0.23681295735286317 0 -1 0
1686 1 9.477746703838585 14.845394296960542 1.2141000220007971 0 -1 0
1012 1 10.082897760729674 15.29781822884541 0.39582189100651705 0 0 0
3403 1 10.531272998293362 14.30691325321032 0.1450996825918457 -1 -1 1
1326 1 10.5454436944451 14.711971835339492 1.1380316856541635 0 -1 0
3876 1 11.160960361634098 15.166590390994251 0.32844853304176397 0 0 1
3342 1 11.625446404140838 14.591767890288944 1.0868738575418293 -1 -1 1
2901 1 12.23308263024996 15.051169363637051 0.30605684690732177 0 0 1
1553 1 11.588081976162602 14.193406468148048 0.09453045487276861 0 0 1
458 1 12.734382326902896 14.439262410777864 1.0496514277041167 -1 -1 0
3150 1 13.313146395247182 14.945418998787844 0.2644272371064786 0 0 0
3312 1 13.812689070703971 14.298731478861924 1.0208750718070014 0 -1 1
395 1 13.370507901918684 15.287150478710815 1.2830271844782324 1 -1 0
3987 1 12.664745150603258 14.084681502510094 0.04946306342285489 -1 0 1
2556 1 15.375162295981148 15.110488967785143 0.6308123602708018 -1 -1 1
3531 1 14.462835293398792 15.147609083586191 1.246597903564882 -1 0 1
766 1 14.37834662411509 14.811222033002743 0.23771452535666687 -1 0 0
768 1 14.893588130031644 14.179840376133914 0.9716157062587412 -1 0 0
3180 1 0.7082943979452819 0.8299147950307512 1.9648577575116781 0 0 0
2146 1 1.2311289553583813 0.1580124585752143 2.6039436473292734 0 0 1
2331 1 0.10943715884442994 0.2737588667349491 2.686719699169096 0 1 0
3910 1 1.366097124571268 1.2220021088309372 2.800312188942574 1 1 1
1154 1 1.8077017013600927 0.7098307769164417 1.8759008532758485 1 1 0
3193 1 2.4342701865484173 1.1131557741117983 2.757263136651874 0 1 1
354 1 2.336989108619271 0.03509965255164434 2.5227111381616103 1 1 0
1507 1 2.901114525696294 0.6123214358518487 1.781820495672726 1 0 1
1489 1 3.987015610313437 0.693775325390861 1.9045629279438996 0 0 0
2389 1 3.5155656761586673 1.1009733459502504 2.736757174373614 0 1 0
2702 1 4.616708656005475 1.0806552180414994 2.6783084993184945 1 1 1
2677 1 5.146106844625021 0.5675345816378251 1.8659665458969636 0 1 1
1476 1 6.120437836577217 0.2136287699739857 2.3054790621528785 0 1 0
212 1 5.688887714440147 1.093514353096875 2.6185310786706206 -1 1 0
1566 1 6.810774901167221 1.0143458307507125 2.5717424191344063 0 1 0
1161 1 6.841728200008538 0.5703398536717937 1.614570029625637 -1 1 0
2940 1 7.9231811042141205 0.4739821956451571 1.549934186295985 0 0 1
3576 1 7.91124096146312 0.9329419435335319 2.4924703995543647 0 1 1
37 1 7.302003148917464 0.04333072423256685 2.351027669708227 0 0 0
2424 1 9.01423108018664 0.38403955098600795 1.48112565988626 0 0 1
1380 1 8.998987570543111 0.8099687205123507 2.4458849169497694 0 0 0
3965 1 9.54691292500762 1.302932607848345 1.6209268085630992 0 1 1
2871 1 10.09154126317631 0.282319780762353 1.4058956258075233 0 0 1
3669 1 10.078577562816578 0.7092793628314916 2.379196160261213 0 0 1
185 1 10.665728206573492 1.177420806467915 1.5598818581091778 0 0 0
1076 1 11.178936221804095 0.5659159690546779 2.308614945435764 0 0 1
2163 1 12.324895870524063 0.4051422660900194 2.3172848092300384 -1 0 1
1439 1 11.794232636215174 0.9981369539678235 1.524091399168258 0 0 0
1548 1 11.880406582082248 1.375822092929172 2.4909041944162724 0 0 0
470 1 13.412930268085129 0.21996189320588852 2.294128889461404 0 0 0
3574 1 12.904275001412875 0.8564677380034381 1.5378493514970606 0 1 0
2380 1 12.937218359247709 1.30174906625569 2.5581935708086134 -1 1 0
3757 1 13.995755417778797 0.7231841158621779 1.5004807507109437 0 0 1
29 1 13.972577588463956 1.0963154614143382 2.4852440873940167 0 0 0
2147 1 15.004997071934854 0.993724576574376 2.077325188691642 0 0 0
3208 1 14.508965687413028 0.07160057517254544 2.2774544113739124 -1 0 1
2478 1 0.8587877205393798 1.9011716979307838 2.0636047150306487 1 -1 1
1874 1 1.9102882038654927 1.7709098170323148 2.0034134433921436 1 0 0
235 1 2.5898740323455525 2.709447511304891 2.302734348273352 0 0 0
3610 1 1.5129783988780277 2.7636129276141688 2.3133889185053738 0 0 1
320 1 2.9751588819641204 1.739549342590664 2.0322235736707968 1 1 0
1355 1 4.068691388700721 1.741071972658412 1.982319233670022 1 0 0
609 1 3.6527906269039825 2.661224285861965 2.277201122647984 0 1 0
1344 1 5.158102154175012 1.6809654396477867 1.8991820538123054 0 0 0
1352 1 4.7314283862554785 2.6112838576289894 2.214988162843048 0 0 0
2002 1 5.8091544596647795 2.5229664276184645 2.1174819251984043 -1 0 1
1183 1 6.266177845277546 1.5610029779131602 1.822710755246639 0 1 1
3644 1 6.896466630842516 2.4467969243719696 2.042473759807646 0 -1 1
2377 1 7.36034186255638 1.5094487762137876 1.741494920938633 0 1 0
1215 1 7.999903279205172 2.381151190879766 1.9609713053283864 0 0 0
3830 1 7.452936075917073 1.8660911375641798 2.7552385179393486 0 1 1
3654 1 8.444786098114385 1.4208393193106892 1.6851969125011566 0 0 1
1205 1 8.529118669180988 1.7793947794343576 2.686911488876413 0 0 0
195 1 9.096211069166808 2.281830165736042 1.8974129861265185 0 0 0
2862 1 9.632528818191211 1.6799110636336814 2.6300035573892004 0 1 0
188 1 10.238463423011645 2.162796436641929 1.8348563482214832 0 0 0
1729 1 10.758156634393435 1.559540144356013 2.5704913800279403 0 0 0
121 1 11.122578557818168 2.569098474010335 2.567850581904815 -1 0 0
1698 1 11.389218608058554 1.9803610982480242 1.746201403160008 0 0 0
316 1 12.46473462756962 1.8456813810637414 1.6915769083895158 0 0 0
1882 1 12.162297429770682 2.4478946887387467 2.4823828176891727 -1 1 0
631 1 13.501813072049519 1.7365325233510875 1.7079429105492552 0 0 0
352 1 14.727607696125956 2.678862620451837 1.4295207961466578 0 1 0
635 1 15.221250638516059 2.0330508833896674 2.1562737283279034 0 0 0
3703 1 14.185599318336351 2.174415723679478 2.345643510434748 0 0 1
729 1 0.45576270727085716 2.883050934526503 2.3774859957233887 0 1 0