ITEM: TIMESTEP
0
ITEM: NUMBER OF ATOMS
2324
ITEM: BOX BOUNDS pp pp pp
0.0000000000000000e+00 1.5424502472009342e+01
0.0000000000000000e+00 1.5424502472009342e+01
0.0000000000000000e+00 1.5424502472009342e+01
ITEM: ATOMS id type xs ys zs
77 1 0.413297 0.200288 0.0880633
78 1 0.483624 0.195596 0.0819161
107 1 0.348626 0.303969 0.0634232
109 1 0.417041 0.299045 0.0591775
112 1 0.388781 0.360513 0.0805961
113 1 0.457914 0.354237 0.0766362
114 1 0.48553 0.293403 0.0546736
115 1 0.526347 0.349917 0.0726011
117 1 0.553133 0.288555 0.0484875
119 1 0.583741 0.350402 0.036786
120 1 0.619598 0.309839 0.0842421
122 1 0.653285 0.344404 0.0313672
124 1 0.687659 0.303742 0.0804981
141 1 0.252097 0.366903 0.0866568
143 1 0.320198 0.365805 0.0849043
144 1 0.285383 0.408438 0.039789
145 1 0.35434 0.400721 0.034895
146 1 0.423319 0.395456 0.030932
147 1 0.493355 0.390582 0.0271197
148 1 0.465846 0.451895 0.0488746
149 1 0.520675 0.453565 0.00787595
150 1 0.625099 0.405861 0.0508526
151 1 0.555337 0.412816 0.0548245
152 1 0.590602 0.446398 0.00327819
153 1 0.694813 0.399063 0.0462401
156 1 0.737254 0.453956 0.0611785
170 1 0.25909 0.472772 0.0634593
173 1 0.232795 0.536425 0.0834573
174 1 0.327609 0.463957 0.0566617
175 1 0.301394 0.527792 0.0777312
177 1 0.362468 0.498736 0.00550437
178 1 0.396796 0.456876 0.0524104
179 1 0.37066 0.520223 0.0717421
180 1 0.440113 0.51392 0.0702799
181 1 0.432277 0.492677 0.00251386
182 1 0.528751 0.474753 0.0732052
183 1 0.4948 0.515536 0.0268418
184 1 0.598364 0.468029 0.0696455
185 1 0.564058 0.509231 0.0214342
186 1 0.632539 0.500844 0.017584
187 1 0.570149 0.531233 0.0873227
188 1 0.640125 0.523805 0.0849157
189 1 0.667048 0.461916 0.0659096
191 1 0.709281 0.516924 0.0782245
193 1 0.778147 0.50987 0.0739699
209 1 0.336574 0.561465 0.0256553
210 1 0.310335 0.624361 0.0472649
211 1 0.406198 0.555688 0.0232275
212 1 0.379143 0.616293 0.0418245
213 1 0.413082 0.57568 0.0908722
214 1 0.467798 0.578359 0.0460277
215 1 0.536929 0.571062 0.0404489
216 1 0.510632 0.634006 0.0602365
217 1 0.605821 0.563479 0.0358018
218 1 0.579346 0.626455 0.0548767
219 1 0.674798 0.556247 0.0318666
220 1 0.648506 0.618953 0.0488647
221 1 0.717974 0.611574 0.0452361
239 1 0.353368 0.679687 0.0619479
241 1 0.440727 0.640267 0.0648395
242 1 0.415129 0.703381 0.0842616
244 1 0.483773 0.696792 0.0787197
245 1 0.476305 0.673159 0.0126724
247 1 0.553445 0.688657 0.07402
248 1 0.622832 0.682199 0.0678593
252 1 0.691941 0.673848 0.0634181
273 1 0.327927 0.7424 0.0816236
282 1 0.59592 0.744087 0.0869045
285 1 0.665909 0.737768 0.0816085
410 1 0.376619 0.163569 0.13728
412 1 0.447111 0.158631 0.132417
414 1 0.518649 0.154375 0.127134
415 1 0.483188 0.120982 0.178627
417 1 0.552959 0.115362 0.174198
437 1 0.208735 0.233934 0.166022
438 1 0.243506 0.270536 0.116274
441 1 0.277824 0.229926 0.162925
442 1 0.346967 0.224216 0.159259
443 1 0.313068 0.265526 0.11292
444 1 0.415885 0.220218 0.153932
445 1 0.38159 0.262071 0.109165
446 1 0.450045 0.257204 0.105305
447 1 0.484332 0.215895 0.147579
448 1 0.519183 0.253001 0.098196
449 1 0.587008 0.248839 0.093126
450 1 0.55338 0.212346 0.142916
451 1 0.621877 0.208117 0.13572
452 1 0.593879 0.269831 0.159442
453 1 0.685169 0.206617 0.118078
454 1 0.723917 0.263338 0.129979
455 1 0.656027 0.269151 0.133321
459 1 0.759745 0.224047 0.177363
475 1 0.215923 0.331147 0.13558
476 1 0.285284 0.326408 0.132784
477 1 0.354251 0.323884 0.129372
478 1 0.319645 0.285924 0.178318
479 1 0.388099 0.280655 0.17434
480 1 0.422077 0.319707 0.125955
481 1 0.525346 0.27359 0.164918
482 1 0.45645 0.278117 0.171305
483 1 0.490879 0.31401 0.122956
484 1 0.560281 0.310422 0.116365
485 1 0.626134 0.333575 0.150115
486 1 0.694073 0.327183 0.147033
487 1 0.728336 0.360008 0.0955884
488 1 0.762282 0.319942 0.142619
498 1 0.164087 0.452358 0.171011
499 1 0.189839 0.39229 0.154479
500 1 0.259048 0.386537 0.152645
501 1 0.225419 0.42717 0.104799
502 1 0.233346 0.447732 0.169986
503 1 0.327373 0.385887 0.151183
504 1 0.292879 0.428258 0.106474
505 1 0.301146 0.449024 0.173494
506 1 0.361647 0.421811 0.101738
507 1 0.43075 0.416047 0.0985202
508 1 0.369688 0.442567 0.169313
509 1 0.396051 0.381024 0.149012
510 1 0.439616 0.436523 0.16705
511 1 0.499851 0.411541 0.0955068
512 1 0.532845 0.371025 0.140312
513 1 0.464694 0.374581 0.145715
514 1 0.509042 0.430248 0.16533
515 1 0.590007 0.373345 0.101984
516 1 0.562411 0.435778 0.120775
517 1 0.59408 0.396151 0.168631
518 1 0.632082 0.428638 0.116797
519 1 0.659372 0.366952 0.097942
520 1 0.701247 0.421901 0.113344
521 1 0.664301 0.388909 0.164823
522 1 0.706479 0.445859 0.178962
523 1 0.733787 0.382663 0.160641
524 1 0.803514 0.375537 0.156027
525 1 0.771096 0.414149 0.10819
526 1 0.775442 0.437878 0.173807
528 1 0.845352 0.430413 0.168283
538 1 0.199645 0.487579 0.12172
539 1 0.266999 0.49302 0.129244
540 1 0.335695 0.484294 0.123173
541 1 0.404606 0.478186 0.120217
542 1 0.448874 0.533893 0.137484
543 1 0.378807 0.539355 0.139638
544 1 0.500947 0.537824 0.0925704
545 1 0.474145 0.472362 0.11709
546 1 0.534879 0.49961 0.139375
547 1 0.604189 0.491947 0.134842
548 1 0.714079 0.540787 0.145571
549 1 0.67331 0.485238 0.133082
550 1 0.742891 0.477193 0.125848
551 1 0.784398 0.532009 0.140254
552 1 0.812645 0.469746 0.121391
554 1 0.853798 0.523868 0.135804
562 1 0.173601 0.547405 0.136243
564 1 0.147221 0.609361 0.152733
565 1 0.205614 0.600845 0.103902
566 1 0.240319 0.55631 0.151218
567 1 0.21376 0.620027 0.170713
568 1 0.344274 0.582254 0.0936352
569 1 0.274715 0.591037 0.09891
570 1 0.308977 0.54853 0.144423
571 1 0.28354 0.610949 0.16478
572 1 0.353387 0.602083 0.16087
573 1 0.422478 0.594727 0.158027
574 1 0.507753 0.562851 0.158601
575 1 0.474378 0.601374 0.111711
576 1 0.480869 0.62617 0.177704
577 1 0.543994 0.593516 0.106617
578 1 0.550989 0.617486 0.173039
579 1 0.578102 0.55426 0.153262
580 1 0.613764 0.58615 0.102282
581 1 0.62005 0.609618 0.167443
582 1 0.682177 0.580172 0.0970959
583 1 0.69022 0.604167 0.162089
584 1 0.725419 0.634953 0.110541
585 1 0.750905 0.571875 0.0926643
586 1 0.758654 0.594809 0.158513
587 1 0.794259 0.626682 0.10578
588 1 0.827318 0.587049 0.153175
601 1 0.249126 0.654021 0.118549
602 1 0.222735 0.716938 0.136932
603 1 0.318686 0.646539 0.113709
604 1 0.292144 0.708455 0.133232
605 1 0.361712 0.701134 0.129136
606 1 0.326657 0.665384 0.180403
607 1 0.387368 0.637512 0.110105
608 1 0.447662 0.664456 0.131123
609 1 0.395596 0.655908 0.177061
610 1 0.517502 0.656983 0.126033
611 1 0.490719 0.719739 0.144692
612 1 0.559858 0.71273 0.139982
613 1 0.586862 0.649812 0.121309
614 1 0.629281 0.705202 0.134488
615 1 0.655958 0.642781 0.114998
616 1 0.698736 0.697313 0.1291
969 1 0.662498 0.665871 0.180636
617 1 0.732034 0.658479 0.176672
618 1 0.767744 0.690135 0.124602
619 1 0.800784 0.649952 0.172689
620 1 0.870186 0.641274 0.16744
634 1 0.266438 0.770736 0.151988
636 1 0.335772 0.763118 0.149696
637 1 0.422107 0.728068 0.150013
638 1 0.389397 0.766765 0.104142
639 1 0.396323 0.792272 0.169731
640 1 0.527562 0.751331 0.0925973
641 1 0.458217 0.759265 0.0976368
642 1 0.465458 0.782706 0.163583
643 1 0.534639 0.774561 0.158504
644 1 0.501143 0.813563 0.110356
645 1 0.570613 0.806511 0.105214
646 1 0.603091 0.76702 0.152983
647 1 0.639109 0.800054 0.100825
649 1 0.672069 0.760257 0.148255
650 1 0.715979 0.814881 0.16124
651 1 0.740903 0.752019 0.143076
669 1 0.310583 0.825573 0.168227
673 1 0.432214 0.821736 0.116784
676 1 0.510713 0.83748 0.177222
677 1 0.53106 0.904034 0.181282
679 1 0.578103 0.829804 0.171462
682 1 0.647245 0.82332 0.167264
737 1 0.515147 0.085395 0.22754
740 1 0.586224 0.0781819 0.223603
756 1 0.238777 0.133943 0.256783
758 1 0.340323 0.128895 0.189382
759 1 0.309357 0.127698 0.251355
760 1 0.411171 0.125298 0.184127
761 1 0.446092 0.0957014 0.234234
762 1 0.380137 0.11895 0.24589
763 1 0.422579 0.173631 0.259957
764 1 0.451872 0.180606 0.197627
765 1 0.486289 0.148566 0.2465
766 1 0.520749 0.17738 0.193003
767 1 0.55575 0.139474 0.239702
768 1 0.624335 0.134911 0.235889
769 1 0.588879 0.172391 0.187789
770 1 0.656431 0.169481 0.182838
771 1 0.692976 0.130269 0.229084
786 1 0.147416 0.257214 0.234187
787 1 0.243367 0.192012 0.213113
788 1 0.215951 0.252954 0.232343
789 1 0.350942 0.18244 0.266204
790 1 0.312324 0.188522 0.209978
791 1 0.284529 0.249314 0.228893
792 1 0.354364 0.243667 0.22426
793 1 0.280156 0.189827 0.271337
794 1 0.382357 0.183645 0.204208
795 1 0.423136 0.23852 0.219656
796 1 0.491798 0.23696 0.212741
797 1 0.526613 0.201998 0.258075
798 1 0.559878 0.234395 0.20929
799 1 0.594287 0.195247 0.253012
800 1 0.627504 0.230834 0.201761
801 1 0.629947 0.25367 0.266433
456 1 0.691946 0.230359 0.183097
802 1 0.694461 0.255586 0.247794
803 1 0.662627 0.193323 0.248145
804 1 0.727922 0.190915 0.229368
805 1 0.799274 0.183708 0.224058
806 1 0.763045 0.249794 0.242275
808 1 0.830742 0.243521 0.236844
816 1 0.154828 0.355935 0.203395
817 1 0.119955 0.319821 0.252647
818 1 0.181194 0.294294 0.18456
819 1 0.250301 0.289914 0.18244
820 1 0.188873 0.314286 0.250657
821 1 0.223766 0.350544 0.201778
822 1 0.256875 0.309241 0.248394
823 1 0.292898 0.345848 0.19948
824 1 0.326701 0.304653 0.244383
825 1 0.361708 0.342082 0.195696
826 1 0.430583 0.338155 0.194139
827 1 0.396291 0.300042 0.239836
828 1 0.440968 0.354064 0.262036
829 1 0.369313 0.361079 0.260913
830 1 0.533111 0.275919 0.260133
831 1 0.499668 0.332645 0.1912
832 1 0.467204 0.294429 0.239341
833 1 0.510483 0.346775 0.2631
834 1 0.566895 0.330986 0.182637
835 1 0.593884 0.291226 0.226891
836 1 0.624647 0.355966 0.217215
837 1 0.657528 0.293111 0.199602
838 1 0.695978 0.350505 0.213242
839 1 0.658498 0.317886 0.266568
840 1 0.727393 0.289297 0.195556
841 1 0.731465 0.313942 0.260974
842 1 0.796127 0.281414 0.189565
843 1 0.767387 0.344952 0.208388
844 1 0.801366 0.307362 0.254912
845 1 0.836711 0.335676 0.202727
846 1 0.871912 0.298546 0.249249
848 1 0.843091 0.362087 0.268695
849 1 0.912718 0.350342 0.262511
856 1 0.0934013 0.382718 0.270647
857 1 0.129249 0.418644 0.220686
858 1 0.161997 0.376296 0.268937
859 1 0.230902 0.370833 0.267351
860 1 0.197589 0.412233 0.219479
861 1 0.266031 0.406364 0.218385
862 1 0.299183 0.364785 0.265189
863 1 0.335809 0.404942 0.21749
864 1 0.405117 0.398913 0.216046
894 1 0.449141 0.4541 0.234998
865 1 0.474737 0.392471 0.214485
866 1 0.51841 0.446887 0.234169
867 1 0.543537 0.3856 0.215654
868 1 0.599598 0.421522 0.23518
869 1 0.63753 0.451573 0.18345
870 1 0.669719 0.412759 0.232165
871 1 0.739652 0.406176 0.226228
872 1 0.80941 0.399628 0.221158
873 1 0.879166 0.390746 0.215601
874 1 0.851593 0.452954 0.235079
875 1 0.922118 0.443912 0.22907
880 1 0.076294 0.541859 0.255096
882 1 0.137922 0.514174 0.187608
883 1 0.172093 0.473736 0.237858
884 1 0.102715 0.479926 0.238716
885 1 0.145811 0.534164 0.253751
886 1 0.206898 0.507643 0.187634
887 1 0.241307 0.467323 0.237138
888 1 0.215321 0.527395 0.25407
889 1 0.275397 0.512193 0.194961
890 1 0.283109 0.531256 0.262874
891 1 0.343983 0.504846 0.189794
892 1 0.309872 0.468573 0.240031
893 1 0.352956 0.522515 0.257922
895 1 0.412995 0.497919 0.187074
896 1 0.379869 0.460678 0.237077
897 1 0.423017 0.515415 0.255102
898 1 0.482969 0.490325 0.185372
899 1 0.493552 0.507679 0.253236
900 1 0.54105 0.523636 0.205174
901 1 0.56833 0.459951 0.186947
902 1 0.611496 0.515538 0.200426
903 1 0.573309 0.486261 0.252025
904 1 0.616609 0.540483 0.266469
905 1 0.643599 0.477349 0.248758
906 1 0.71191 0.468857 0.24427
907 1 0.686841 0.53231 0.261069
908 1 0.782072 0.462144 0.240105
909 1 0.747047 0.50124 0.192662
910 1 0.755571 0.52485 0.258395
911 1 0.81787 0.49264 0.187052
912 1 0.887712 0.484101 0.182972
913 1 0.825281 0.516468 0.253495
914 1 0.894798 0.50808 0.249163
919 1 0.0506926 0.604699 0.272228
920 1 0.11153 0.575533 0.204456
921 1 0.155488 0.629696 0.217189
922 1 0.119742 0.596136 0.270494
923 1 0.181317 0.567779 0.202209
924 1 0.248346 0.576691 0.216508
925 1 0.189695 0.588473 0.268699
926 1 0.317589 0.566732 0.212185
927 1 0.292181 0.630549 0.231843
928 1 0.360872 0.620352 0.227905
929 1 0.38721 0.559564 0.206879
930 1 0.432039 0.612602 0.224822
931 1 0.457348 0.550827 0.205622
932 1 0.513864 0.588323 0.223748
933 1 0.546123 0.549611 0.271316
934 1 0.583575 0.578759 0.219951
935 1 0.627328 0.634169 0.233687
936 1 0.653636 0.570749 0.213218
937 1 0.696798 0.627328 0.229835
938 1 0.722969 0.564827 0.211125
939 1 0.791369 0.555743 0.206084
940 1 0.765802 0.618639 0.22535
941 1 0.79934 0.580043 0.271732
942 1 0.860952 0.54717 0.200859
943 1 0.835518 0.610624 0.219627
944 1 0.868167 0.570947 0.267654
945 1 0.904148 0.600799 0.214985
946 1 0.937673 0.561429 0.262176
951 1 0.130278 0.691942 0.233582
952 1 0.257469 0.673957 0.185287
953 1 0.222289 0.641614 0.235804
954 1 0.187147 0.685387 0.189892
955 1 0.195092 0.705529 0.256749
956 1 0.266038 0.693036 0.252527
957 1 0.336147 0.683517 0.24814
959 1 0.40634 0.673738 0.24515
960 1 0.370674 0.718992 0.196566
961 1 0.453618 0.689461 0.196709
962 1 0.459781 0.715089 0.262652
963 1 0.487297 0.651123 0.244364
964 1 0.523883 0.681292 0.191608
965 1 0.530641 0.7053 0.258337
966 1 0.557495 0.64239 0.238692
967 1 0.593368 0.672416 0.185938
968 1 0.601321 0.696577 0.253003
970 1 0.670596 0.688948 0.248028
971 1 0.705505 0.720554 0.195429
972 1 0.739658 0.681044 0.242883
973 1 0.775491 0.713342 0.190876
974 1 0.808592 0.673155 0.238719
975 1 0.8436 0.704774 0.185775
976 1 0.878283 0.664558 0.233618
986 1 0.161252 0.74782 0.20807
988 1 0.231419 0.737486 0.203477
989 1 0.204298 0.800073 0.222709
990 1 0.239462 0.757606 0.270204
958 1 0.30136 0.727644 0.200682
991 1 0.275398 0.789823 0.218887
992 1 0.346782 0.781048 0.217459
993 1 0.3111 0.745288 0.268159
994 1 0.381938 0.733868 0.26505
995 1 0.428556 0.753173 0.2159
996 1 0.404265 0.818162 0.236325
997 1 0.498112 0.744134 0.210744
998 1 0.473703 0.808351 0.230427
999 1 0.542827 0.798729 0.224849
1000 1 0.567083 0.735555 0.205779
1001 1 0.612224 0.791293 0.219436
1002 1 0.636341 0.72778 0.200291
1003 1 0.681242 0.783394 0.214225
1004 1 0.714352 0.744198 0.262108
1005 1 0.64522 0.751445 0.267067
1006 1 0.749575 0.775957 0.209023
1007 1 0.783208 0.73626 0.257347
1008 1 0.802213 0.803817 0.262146
1009 1 0.731879 0.811969 0.266532
1010 1 0.817845 0.767413 0.203932
1011 1 0.852831 0.728456 0.252728
1023 1 0.246651 0.852564 0.237568
1025 1 0.317761 0.841963 0.234543
1026 1 0.349616 0.901271 0.239419
1027 1 0.440957 0.847476 0.182791
1028 1 0.370937 0.855672 0.189537
1029 1 0.418174 0.889323 0.233739
1030 1 0.487497 0.877833 0.23022
1031 1 0.560814 0.86703 0.227528
1032 1 0.630939 0.85807 0.224545
1033 1 0.662455 0.818879 0.27018
1034 1 0.701722 0.850633 0.21886
1058 1 0.462711 0.941669 0.249686
1060 1 0.533772 0.930301 0.246429
1062 1 0.603757 0.921027 0.242079
1093 1 0.341401 0.0844788 0.29765
1094 1 0.303732 0.050401 0.350984
1096 1 0.407982 0.0688999 0.288085
1097 1 0.372603 0.0393913 0.340432
1098 1 0.441755 0.0294918 0.334767
1099 1 0.477694 0.0571543 0.281661
1100 1 0.483245 0.0823296 0.34807
1101 1 0.511144 0.0190834 0.329272
1102 1 0.54896 0.0489222 0.276199
1103 1 0.552625 0.0736612 0.341815
1104 1 0.622607 0.0648309 0.336798
1106 1 0.692545 0.058303 0.331402
1121 1 0.175224 0.160818 0.325069
1123 1 0.245044 0.154801 0.322233
1124 1 0.27215 0.0932748 0.303546
1125 1 0.314382 0.147515 0.317285
1126 1 0.345501 0.104421 0.362975
1127 1 0.413399 0.0926355 0.355239
1128 1 0.383235 0.138441 0.31131
1129 1 0.449741 0.121228 0.300544
1130 1 0.519513 0.110562 0.293856
1131 1 0.490582 0.175198 0.312972
1132 1 0.52329 0.136649 0.360187
1133 1 0.589701 0.103523 0.288532
1134 1 0.629217 0.159644 0.300754
1135 1 0.559281 0.164562 0.305883
1136 1 0.593207 0.128557 0.353641
1137 1 0.659657 0.0967793 0.283016
1138 1 0.697673 0.154625 0.294907
1139 1 0.661807 0.121191 0.3482
1140 1 0.700444 0.180044 0.358904
1142 1 0.763251 0.157512 0.276502
1143 1 0.731512 0.115977 0.344812
1145 1 0.765208 0.17962 0.3409
1147 1 0.832631 0.169415 0.326689
1158 1 0.14154 0.200665 0.277953
1159 1 0.148391 0.2226 0.34406
1160 1 0.11531 0.263322 0.296782
1161 1 0.210167 0.196176 0.275107
1162 1 0.183836 0.258855 0.294358
1163 1 0.217019 0.216184 0.340738
1164 1 0.254059 0.25227 0.290315
1190 1 0.258397 0.271606 0.35631
1165 1 0.286775 0.209892 0.337006
1166 1 0.323316 0.244977 0.286741
1167 1 0.327427 0.264611 0.352078
1168 1 0.355528 0.202116 0.332103
1169 1 0.424398 0.19324 0.325657
1170 1 0.392503 0.237601 0.280936
1171 1 0.395873 0.256206 0.34676
1172 1 0.464572 0.230097 0.275856
1173 1 0.526952 0.232615 0.31759
1174 1 0.464204 0.247831 0.341995
1175 1 0.59512 0.223881 0.315498
1176 1 0.665195 0.217758 0.312372
1177 1 0.730489 0.217398 0.295159
1178 1 0.799526 0.213395 0.288587
1179 1 0.805417 0.23754 0.353261
1180 1 0.736527 0.24102 0.361219
1181 1 0.874843 0.225285 0.337197
1182 1 0.83883 0.271195 0.301337
1187 1 0.088357 0.324514 0.313688
1188 1 0.156349 0.319964 0.31336
1189 1 0.121039 0.283895 0.362751
1191 1 0.225211 0.314217 0.310028
1192 1 0.189406 0.278623 0.361532
1193 1 0.294687 0.30773 0.307129
1194 1 0.36384 0.301872 0.302274
1195 1 0.432711 0.292088 0.297466
1196 1 0.404124 0.356142 0.31844
1197 1 0.438366 0.310858 0.362253
1198 1 0.498373 0.301049 0.316136
1199 1 0.53782 0.355638 0.333931
1200 1 0.580853 0.337966 0.273486
1201 1 0.56595 0.290736 0.323144
1202 1 0.605925 0.348391 0.338577
1203 1 0.633994 0.284771 0.326347
1204 1 0.69998 0.279048 0.313833
1205 1 0.673098 0.342796 0.33309
1206 1 0.768767 0.275793 0.308152
1207 1 0.809727 0.332744 0.321598
1208 1 0.741062 0.337177 0.327424
1209 1 0.879095 0.333577 0.319709
1210 1 0.907896 0.276138 0.303377
1211 1 0.949166 0.331278 0.318045
1212 1 0.066726 0.44606 0.288614
1213 1 0.0601949 0.384776 0.331672
1214 1 0.0339356 0.445225 0.349888
1215 1 0.135156 0.437772 0.286932
1216 1 0.129262 0.380934 0.331496
1217 1 0.102736 0.443682 0.349169
1218 1 0.172271 0.437311 0.347495
1219 1 0.205491 0.431963 0.285923
1220 1 0.198493 0.376108 0.329753
1221 1 0.240963 0.432918 0.346599
1222 1 0.26695 0.370264 0.327149
1223 1 0.335789 0.365278 0.32351
1224 1 0.274676 0.426276 0.285483
1225 1 0.343169 0.423213 0.283062
1226 1 0.309295 0.430681 0.347798
1227 1 0.41469 0.416681 0.2833
1228 1 0.377062 0.420645 0.341675
1229 1 0.442712 0.426707 0.352152
1230 1 0.470639 0.36473 0.33216
1231 1 0.484786 0.409972 0.282807
1232 1 0.510127 0.419589 0.350516
1233 1 0.554011 0.401023 0.284156
1234 1 0.577699 0.41285 0.351176
1235 1 0.607051 0.447227 0.300288
1236 1 0.633656 0.383023 0.284657
1237 1 0.703699 0.37549 0.280515
1238 1 0.713021 0.399192 0.345579
1239 1 0.677494 0.439268 0.297832
1240 1 0.645957 0.407246 0.350434
1241 1 0.773716 0.368986 0.274704
1242 1 0.746254 0.4313 0.292376
1243 1 0.782365 0.393744 0.340987
1244 1 0.816023 0.42404 0.287842
1245 1 0.885579 0.414589 0.281996
1246 1 0.850677 0.39212 0.336962
1247 1 0.894031 0.448727 0.352171
1248 1 0.823859 0.451958 0.354932
1249 1 0.955272 0.403198 0.276695
1251 1 0.921093 0.389582 0.335178
1252 1 0.964216 0.446622 0.350476
1253 1 0.0395536 0.509379 0.306096
1254 1 0.109482 0.500534 0.304643
1255 1 0.179507 0.493492 0.303347
1256 1 0.24943 0.487512 0.304816
1257 1 0.31862 0.486517 0.307064
1258 1 0.363073 0.541813 0.326043
1259 1 0.387641 0.479666 0.303917
1260 1 0.433713 0.534197 0.321615
1261 1 0.458162 0.471732 0.302088
1262 1 0.503678 0.524311 0.319597
1263 1 0.528966 0.464222 0.300502
1264 1 0.581056 0.50983 0.318607
1265 1 0.649898 0.50136 0.313838
1266 1 0.719902 0.494285 0.310191
1267 1 0.686519 0.463193 0.362887
1268 1 0.755312 0.455379 0.358657
1269 1 0.789604 0.487434 0.305702
1270 1 0.858396 0.478503 0.302
1271 1 0.901354 0.532223 0.315354
1272 1 0.831727 0.541367 0.320787
1274 1 0.928344 0.467447 0.295114
1275 1 0.970866 0.520262 0.309046
1276 1 0.0835067 0.563044 0.321933
1277 1 0.0583929 0.625819 0.338212
1279 1 0.154179 0.554999 0.319632
1280 1 0.127715 0.61693 0.335531
1281 1 0.225282 0.548809 0.319542
1282 1 0.257957 0.596371 0.283296
1283 1 0.19847 0.608674 0.334732
1284 1 0.265992 0.611985 0.351834
1285 1 0.293973 0.549298 0.329467
1286 1 0.327172 0.585453 0.278701
1287 1 0.337123 0.603252 0.346774
1288 1 0.397827 0.576464 0.275226
1289 1 0.442607 0.628313 0.293055
1290 1 0.407797 0.594414 0.344434
1291 1 0.468664 0.5686 0.273216
1292 1 0.479438 0.585427 0.340403
1293 1 0.519351 0.613293 0.29084
1294 1 0.525985 0.636106 0.356338
1295 1 0.552254 0.573087 0.337798
1296 1 0.590656 0.603135 0.285936
1297 1 0.623551 0.563751 0.333371
1298 1 0.597458 0.62678 0.351955
1299 1 0.660117 0.594672 0.280926
1300 1 0.692774 0.5553 0.329298
1301 1 0.666944 0.618914 0.347633
1302 1 0.762584 0.548919 0.324637
1303 1 0.729612 0.587694 0.276961
1304 1 0.806352 0.604345 0.339161
1305 1 0.736844 0.611536 0.343188
1306 1 0.875544 0.595762 0.334322
1307 1 0.842183 0.634011 0.285482
1308 1 0.911436 0.624395 0.280813
1310 1 0.943831 0.585095 0.328636
1315 1 0.0934556 0.658741 0.286271
1316 1 0.100357 0.679326 0.350298
1317 1 0.164177 0.650198 0.281542
1318 1 0.136764 0.712615 0.299315
1319 1 0.16994 0.670584 0.345367
1320 1 0.230976 0.660288 0.303046
1321 1 0.205727 0.723863 0.322159
1322 1 0.276106 0.71166 0.319087
1323 1 0.301859 0.648579 0.299431
1324 1 0.346979 0.700528 0.315587
1325 1 0.371995 0.637957 0.295967
1326 1 0.418139 0.688218 0.313423
1327 1 0.454089 0.645603 0.360748
1328 1 0.492186 0.675585 0.310416
1329 1 0.608655 0.720116 0.320514
1330 1 0.564237 0.666317 0.30434
1331 1 0.635178 0.657572 0.300215
1332 1 0.703848 0.650272 0.295398
1333 1 0.677843 0.7124 0.314407
1334 1 0.711717 0.673708 0.362446
1335 1 0.773182 0.642863 0.290904
1336 1 0.747014 0.705381 0.310224
1337 1 0.780991 0.666781 0.357376
1338 1 0.816651 0.696928 0.304364
1339 1 0.885424 0.689033 0.299666
1340 1 0.849656 0.658203 0.351997
1341 1 0.867099 0.72712 0.355592
1342 1 0.918984 0.651317 0.347443
1344 1 0.938299 0.719531 0.349748
1346 1 0.168847 0.768612 0.275202
1347 1 0.109161 0.773696 0.317068
1348 1 0.175798 0.787469 0.341511
1349 1 0.249718 0.774998 0.338043
1350 1 0.284839 0.807516 0.286126
1351 1 0.322797 0.763358 0.334414
1352 1 0.358648 0.795701 0.284862
1353 1 0.437178 0.778194 0.281932
1354 1 0.395287 0.751778 0.331528
1356 1 0.538514 0.727996 0.324851
1357 1 0.506288 0.768184 0.276969
1358 1 0.467745 0.737684 0.329093
1359 1 0.48198 0.807897 0.329605
1360 1 0.575313 0.758606 0.273056
1361 1 0.552106 0.798147 0.324732
1362 1 0.621768 0.789037 0.321019
1363 1 0.692103 0.781299 0.317488
1364 1 0.763621 0.774141 0.313143
1365 1 0.796435 0.735096 0.360261
1366 1 0.834126 0.765073 0.308957
1379 1 0.212537 0.819883 0.290586
1380 1 0.246216 0.878261 0.301456
1381 1 0.210227 0.845689 0.354823
1382 1 0.277844 0.83754 0.347673
1383 1 0.345011 0.829011 0.342196
1384 1 0.314696 0.869544 0.296397
1385 1 0.320445 0.891087 0.361929
1355 1 0.412965 0.81882 0.332978
1386 1 0.44991 0.849199 0.282412
1387 1 0.381691 0.860931 0.286496
1388 1 0.388531 0.881463 0.354467
1389 1 0.457022 0.872051 0.348133
1390 1 0.519799 0.839064 0.278204
1391 1 0.526723 0.861513 0.344119
1392 1 0.494435 0.901979 0.296842
1393 1 0.591013 0.827856 0.274133
1394 1 0.564383 0.891969 0.293328
1395 1 0.596671 0.851676 0.339651
1396 1 0.634975 0.882665 0.289384
1397 1 0.666642 0.84413 0.335599
1398 1 0.705143 0.874652 0.284729
1399 1 0.709218 0.899245 0.34948
1400 1 0.639716 0.907782 0.353719
1401 1 0.736045 0.836908 0.332396
1402 1 0.775866 0.867154 0.28066
1403 1 0.806702 0.8293 0.328709
1404 1 0.780003 0.892891 0.346514
1421 1 0.356161 0.923161 0.307937
1422 1 0.287738 0.931652 0.316204
1424 1 0.425266 0.913073 0.300885
1426 1 0.469184 0.965637 0.315797
1427 1 0.538335 0.955377 0.311543
1428 1 0.500703 0.924815 0.36253
1429 1 0.570319 0.915374 0.358009
1430 1 0.607971 0.946787 0.305952
1431 1 0.678325 0.939382 0.302386
1446 1 0.240119 0.0795288 0.419553
1448 1 0.30894 0.0711399 0.415238
1450 1 0.377739 0.0617005 0.406907
1451 1 0.447071 0.0525907 0.401572
1452 1 0.410476 0.0199524 0.453892
1453 1 0.516025 0.0427376 0.394037
1454 1 0.48017 0.0113795 0.448378
1455 1 0.548817 0.00320376 0.441092
1456 1 0.585159 0.0345271 0.388892
1457 1 0.626991 0.089429 0.401802
1458 1 0.591125 0.0585902 0.45362
1459 1 0.655772 0.0264308 0.384249
1460 1 0.696892 0.0824606 0.396802
1461 1 0.660397 0.0499796 0.449426
1463 1 0.730298 0.0440892 0.445616
1466 1 0.766786 0.076105 0.39226
1479 1 0.145142 0.147448 0.44242
1480 1 0.207944 0.119647 0.371828
1481 1 0.214166 0.140587 0.439579
1482 1 0.2507 0.175156 0.388034
1507 1 0.181953 0.181716 0.391733
1483 1 0.276835 0.113591 0.368419
1484 1 0.282246 0.133535 0.434442
1485 1 0.318914 0.168246 0.383262
1486 1 0.350958 0.125045 0.42869
1487 1 0.419408 0.116158 0.421636
1488 1 0.386594 0.159076 0.378501
1489 1 0.392992 0.179994 0.443188
1490 1 0.454005 0.146951 0.367344
1491 1 0.461358 0.169717 0.434164
1492 1 0.487729 0.106332 0.413407
1493 1 0.529622 0.161128 0.425073
1494 1 0.557373 0.0980296 0.406937
1495 1 0.597176 0.153434 0.417084
1496 1 0.666998 0.1468 0.412235
1497 1 0.798518 0.136586 0.379908
1498 1 0.736741 0.141722 0.407373
1499 1 0.805818 0.160262 0.447326
1502 1 0.873511 0.152526 0.437486
1506 1 0.0860462 0.249511 0.413182
1508 1 0.112471 0.187528 0.395115
1509 1 0.154305 0.243636 0.410544
1510 1 0.224137 0.237334 0.40705
1511 1 0.256639 0.195388 0.454321
1512 1 0.325209 0.188134 0.449231
1513 1 0.292578 0.230735 0.403251
1514 1 0.360465 0.222253 0.397534
1515 1 0.428473 0.213485 0.392035
1516 1 0.532105 0.259296 0.378973
1517 1 0.495225 0.200461 0.37992
1518 1 0.503393 0.223749 0.445918
1519 1 0.470025 0.267695 0.406541
1520 1 0.630821 0.185589 0.364498
1521 1 0.562392 0.192827 0.368178
1522 1 0.600445 0.252256 0.377953
1523 1 0.569002 0.218229 0.430917
1524 1 0.637121 0.211647 0.427438
1525 1 0.669393 0.245325 0.373692
1526 1 0.706064 0.205224 0.421814
1527 1 0.675134 0.269628 0.438287
1528 1 0.772156 0.202008 0.405429
1529 1 0.743237 0.265063 0.426419
1530 1 0.812792 0.258763 0.419148
1531 1 0.840758 0.19411 0.393041
1532 1 0.881998 0.24821 0.406558
1535 1 0.948311 0.260574 0.419881
1536 1 0.91652 0.206769 0.450391
1537 1 0.0533737 0.289282 0.364295
1538 1 0.0601477 0.309239 0.430976
1539 1 0.0267027 0.349374 0.382543
1540 1 0.0951826 0.344257 0.381624
1541 1 0.128857 0.304971 0.429422
1542 1 0.163781 0.340168 0.379589
1543 1 0.170821 0.361499 0.445691
1544 1 0.196868 0.298781 0.426705
1545 1 0.233103 0.334522 0.37626
1546 1 0.238977 0.354144 0.442966
1547 1 0.265593 0.29254 0.423042
1548 1 0.333614 0.284323 0.417989
1549 1 0.301201 0.327498 0.372489
1550 1 0.307726 0.34652 0.438518
1551 1 0.369372 0.319517 0.367132
1552 1 0.402195 0.275923 0.412449
1553 1 0.376778 0.338592 0.43259
1554 1 0.445544 0.330336 0.427907
1555 1 0.502667 0.324959 0.386077
1556 1 0.539164 0.283813 0.441641
1557 1 0.50944 0.348278 0.45289
1558 1 0.607908 0.27693 0.442387
1559 1 0.571948 0.316531 0.389138
1560 1 0.640457 0.310922 0.389251
1561 1 0.708101 0.303716 0.380373
1562 1 0.715877 0.327519 0.446098
1563 1 0.647468 0.334704 0.452705
1564 1 0.777851 0.298489 0.373989
1565 1 0.784093 0.320898 0.439571
1566 1 0.749157 0.361367 0.392523
1567 1 0.817821 0.355626 0.387832
1568 1 0.846812 0.293205 0.366619
1569 1 0.85342 0.315503 0.43217
1570 1 0.886808 0.356597 0.385189
1572 1 0.915082 0.297856 0.369808
1574 1 0.921533 0.320872 0.435395
1575 1 0.956703 0.353442 0.383326
1576 1 0.0687701 0.406407 0.398438
1577 1 0.0334111 0.370416 0.448002
1578 1 0.102856 0.366769 0.447216
1579 1 0.137066 0.402145 0.397422
1580 1 0.206156 0.396053 0.396239
1581 1 0.246245 0.452649 0.413825
1582 1 0.274673 0.39132 0.393698
1583 1 0.342714 0.382874 0.388555
1584 1 0.315118 0.449806 0.415588
1585 1 0.34934 0.400046 0.454032
1586 1 0.4109 0.37367 0.382277
1587 1 0.382235 0.439455 0.406491
1588 1 0.418116 0.39351 0.446092
1589 1 0.446979 0.45093 0.420866
1590 1 0.474979 0.388642 0.402388
1591 1 0.515071 0.443584 0.418795
1592 1 0.543685 0.380102 0.401753
1593 1 0.612755 0.373828 0.402857
1594 1 0.58389 0.436412 0.418035
1595 1 0.653276 0.430417 0.415328
1596 1 0.680967 0.367428 0.398942
1597 1 0.72143 0.423556 0.410865
1598 1 0.790391 0.41805 0.406096
1599 1 0.859349 0.41541 0.403609
1600 1 0.895459 0.380532 0.451694
1601 1 0.826261 0.378998 0.453056
1602 1 0.999352 0.409309 0.398908
1603 1 0.964906 0.375967 0.449393
1604 1 0.929662 0.413079 0.400358
1605 1 0.075727 0.506462 0.366579
1606 1 0.00704197 0.504124 0.366695
1607 1 0.0423029 0.466952 0.41493
1608 1 0.0171107 0.527922 0.431077
1609 1 0.0865132 0.52859 0.432608
1610 1 0.14407 0.501263 0.364938
1611 1 0.178212 0.457742 0.412742
1612 1 0.110404 0.465323 0.414434
1613 1 0.157839 0.521793 0.429406
1614 1 0.21215 0.494129 0.365027
1615 1 0.240257 0.522847 0.423939
1616 1 0.34639 0.492275 0.372357
1617 1 0.278935 0.494142 0.369794
1618 1 0.330736 0.522763 0.443018
1619 1 0.41326 0.490402 0.370059
1620 1 0.409314 0.512923 0.440586
1621 1 0.480533 0.483037 0.369032
1622 1 0.484103 0.507509 0.437014
1623 1 0.517003 0.541055 0.386888
1624 1 0.548369 0.476104 0.368392
1625 1 0.616861 0.470297 0.366296
1626 1 0.554008 0.500246 0.435105
1627 1 0.588464 0.532925 0.38508
1628 1 0.624223 0.49313 0.433116
1629 1 0.657892 0.524604 0.38078
1630 1 0.69382 0.486492 0.429269
1631 1 0.72797 0.51809 0.377198
1632 1 0.797043 0.5122 0.372862
1633 1 0.762618 0.479749 0.424786
1634 1 0.805681 0.536613 0.439311
1635 1 0.736388 0.541667 0.443533
1636 1 0.832215 0.474974 0.421125
1637 1 0.865893 0.508037 0.370211
1638 1 0.875738 0.532107 0.436124
1639 1 0.902716 0.472577 0.418517
1640 1 0.936932 0.505152 0.368067
1641 1 0.973085 0.46988 0.416011
1642 1 0.946499 0.528963 0.433709
1643 1 0.050148 0.56911 0.383788
1644 1 0.0593879 0.590701 0.450515
1645 1 0.0235842 0.631655 0.399674
1646 1 0.0942238 0.628619 0.400437
1647 1 0.121187 0.56597 0.382447
1648 1 0.166413 0.620049 0.397256
1649 1 0.130228 0.584475 0.449963
1650 1 0.192456 0.557158 0.380651
1651 1 0.199961 0.575855 0.447089
1652 1 0.273575 0.631884 0.420782
1653 1 0.297531 0.566366 0.398286
1654 1 0.343672 0.620362 0.414988
1655 1 0.445793 0.54824 0.390469
1656 1 0.373036 0.555657 0.39443
1657 1 0.416746 0.610715 0.410967