ITEM: TIMESTEP
1000
ITEM: NUMBER OF ATOMS
2324
ITEM: BOX BOUNDS ss ss ss
-7.7850177086823555e-02 1.5578012059268401e+01
2.7139056634536359e-02 1.5375778397303641e+01
-6.4232553932219522e-02 1.5487129562891376e+01
ITEM: ATOMS id type xs ys zs
1 1 0.472395 0.7515 0.915881
2 1 0.401536 0.75685 0.920506
3 1 0.647165 0.6951 0.952478
4 1 0.576612 0.702827 0.958171
5 1 0.603804 0.64087 0.936833
6 1 0.506029 0.710401 0.96416
7 1 0.463428 0.655622 0.947342
8 1 0.533661 0.648388 0.941648
9 1 0.435954 0.71643 0.968495
10 1 0.393001 0.662014 0.952256
11 1 0.261024 0.645064 0.931891
12 1 0.74311 0.625858 0.92834
13 1 0.673887 0.632785 0.932113
14 1 0.638251 0.603338 0.984562
15 1 0.700823 0.570246 0.913122
16 1 0.630399 0.578239 0.918056
17 1 0.561228 0.586165 0.922933
18 1 0.56783 0.61103 0.989593
19 1 0.49116 0.59332 0.928569
20 1 0.497238 0.617683 0.996085
21 1 0.455229 0.561458 0.980869
22 1 0.525833 0.554867 0.976227
23 1 0.420582 0.599774 0.933337
24 1 0.36494 0.598812 0.975296
25 1 0.42756 0.62542 1.00138
26 1 0.33082 0.637847 0.927481
27 1 0.289921 0.581928 0.910995
28 1 0.219975 0.588494 0.914502
29 1 0.764264 0.468835 0.941953
30 1 0.666279 0.540133 0.966114
31 1 0.693873 0.476985 0.946315
32 1 0.595414 0.547285 0.970714
33 1 0.553152 0.491597 0.957388
34 1 0.623732 0.48411 0.951691
35 1 0.482007 0.498528 0.961588
36 1 0.448925 0.53879 0.913857
37 1 0.393592 0.535706 0.955914
38 1 0.421491 0.473251 0.933255
39 1 0.323498 0.541551 0.958723
40 1 0.352441 0.47984 0.936668
41 1 0.283044 0.486544 0.940535
42 1 0.720706 0.413363 0.927582
43 1 0.650326 0.422157 0.931861
44 1 0.580597 0.430335 0.93631
45 1 0.614982 0.392246 0.98461
46 1 0.544109 0.402736 0.990336
47 1 0.537645 0.377244 0.921637
48 1 0.509636 0.437736 0.941087
49 1 0.454141 0.433884 0.982294
50 1 0.484405 0.37132 0.963011
51 1 0.451004 0.411109 0.913242
52 1 0.3841 0.437302 0.982816
53 1 0.415513 0.376664 0.96227
54 1 0.38179 0.416858 0.915198
55 1 0.343994 0.380079 0.964605
56 1 0.312241 0.424292 0.9193
57 1 0.241271 0.430582 0.922959
58 1 0.747151 0.350016 0.908036
59 1 0.676319 0.358391 0.913918
60 1 0.665248 0.287481 0.914065
61 1 0.606295 0.367389 0.918444
62 1 0.594633 0.297115 0.919541
63 1 0.568709 0.337807 0.972255
64 1 0.52284 0.308161 0.927498
65 1 0.450848 0.316022 0.935605
66 1 0.378919 0.321453 0.94131
67 1 0.54978 0.244675 0.906125
68 1 0.479331 0.253389 0.914177
69 1 0.407881 0.259906 0.921177
70 1 0.336339 0.266967 0.929047
71 1 0.621778 0.827719 0.87268
72 1 0.551361 0.835919 0.878162
73 1 0.587306 0.868525 0.825499
74 1 0.480741 0.842606 0.883795
75 1 0.516537 0.876631 0.830962
76 1 0.447501 0.88423 0.837208
77 1 0.406731 0.200425 0.0802491
78 1 0.479018 0.192958 0.0746834
79 1 0.403073 0.830768 0.82297
80 1 0.332019 0.837295 0.826822
81 1 0.788822 0.749496 0.842213
82 1 0.71805 0.758524 0.846876
83 1 0.648173 0.765632 0.851346
84 1 0.542096 0.742689 0.911001
85 1 0.577524 0.773661 0.857464
86 1 0.612632 0.735352 0.905011
87 1 0.507888 0.781053 0.862137
88 1 0.436982 0.790222 0.868176
89 1 0.366958 0.797719 0.874227
90 1 0.395095 0.734452 0.853916
91 1 0.296678 0.803357 0.879069
92 1 0.325606 0.741637 0.858271
93 1 0.26911 0.741282 0.9007
94 1 0.234215 0.782371 0.85134
95 1 0.814091 0.686932 0.823932
96 1 0.752399 0.718696 0.895529
97 1 0.779171 0.655926 0.876049
98 1 0.744975 0.694647 0.827816
99 1 0.682705 0.727125 0.900227
100 1 0.709125 0.664115 0.880249
101 1 0.674725 0.702912 0.832866
102 1 0.639037 0.672508 0.884921
103 1 0.604419 0.711333 0.838117
104 1 0.569105 0.680262 0.890153
105 1 0.563144 0.65721 0.823374
106 1 0.535041 0.719028 0.842787
107 1 0.338293 0.30475 0.064578
108 1 0.46501 0.727832 0.848838
109 1 0.412134 0.298099 0.0553817
110 1 0.499685 0.688568 0.896129
111 1 0.492722 0.665306 0.829305
112 1 0.385522 0.358691 0.082516
113 1 0.4561 0.351064 0.0746988
114 1 0.484484 0.292015 0.0482429
115 1 0.526253 0.34568 0.0681138
116 1 0.429909 0.695506 0.90085
117 1 0.55766 0.287983 0.0432172
118 1 0.423418 0.672322 0.834669
119 1 0.582137 0.354679 0.0284241
120 1 0.616868 0.310416 0.076685
121 1 0.358657 0.701689 0.905882
122 1 0.651979 0.346944 0.0279281
123 1 0.353469 0.679127 0.839385
124 1 0.68688 0.303404 0.0773589
125 1 0.297505 0.678093 0.880231
126 1 0.264046 0.719035 0.832779
127 1 0.1942 0.724553 0.837487
128 1 0.227716 0.685118 0.883404
129 1 0.222382 0.662013 0.815479
130 1 0.151587 0.669891 0.821802
131 1 0.7707 0.562257 0.909312
132 1 0.8059 0.594029 0.856413
133 1 0.735676 0.601583 0.860698
134 1 0.666035 0.60905 0.865174
135 1 0.596703 0.617787 0.870464
136 1 0.554757 0.563002 0.856976
137 1 0.623865 0.554494 0.851575
138 1 0.527284 0.625876 0.876205
139 1 0.485097 0.570842 0.862019
140 1 0.457643 0.632833 0.881458
141 1 0.249841 0.348629 0.0716971
142 1 0.387403 0.638927 0.885462
143 1 0.315179 0.366333 0.0911135
144 1 0.281333 0.408551 0.0458663
145 1 0.351369 0.398711 0.0383708
146 1 0.421701 0.390864 0.0289365
147 1 0.493542 0.384648 0.0210024
148 1 0.466144 0.440188 0.0524151
149 1 0.512479 0.457563 0.00456958
150 1 0.620542 0.410172 0.0478583
151 1 0.548868 0.41531 0.0521109
152 1 0.583274 0.449035 0.00160479
153 1 0.690456 0.402681 0.0450783
154 1 0.415543 0.577596 0.866009
155 1 0.359843 0.575737 0.90739
156 1 0.730532 0.458284 0.0600551
157 1 0.381085 0.617678 0.818918
158 1 0.325285 0.615812 0.860123
159 1 0.284494 0.559825 0.843265
160 1 0.354186 0.553927 0.839824
161 1 0.185438 0.629577 0.868309
162 1 0.25588 0.622415 0.86357
163 1 0.214947 0.567117 0.846514
164 1 0.144694 0.574733 0.850599
165 1 0.833346 0.532425 0.837168
166 1 0.86026 0.469797 0.818628
167 1 0.798301 0.500431 0.8886
168 1 0.762426 0.538812 0.840994
169 1 0.790344 0.476621 0.82212
170 1 0.258514 0.472331 0.0683729
171 1 0.72833 0.507848 0.893552
172 1 0.720535 0.483625 0.82658
173 1 0.237058 0.535778 0.0893615
174 1 0.32745 0.460447 0.0628763
175 1 0.305524 0.522971 0.0855206
176 1 0.693439 0.546625 0.846215
177 1 0.365292 0.490121 0.0101166
178 1 0.397527 0.449977 0.0579302
179 1 0.37468 0.511638 0.0799701
180 1 0.444918 0.499679 0.0762197
181 1 0.435653 0.476145 0.00318292
182 1 0.51928 0.480514 0.0720071
183 1 0.485752 0.523323 0.0256156
184 1 0.589449 0.471837 0.0692158
185 1 0.555922 0.513246 0.021647
186 1 0.626153 0.503381 0.0174936
187 1 0.562935 0.535705 0.0877151
188 1 0.632691 0.527756 0.084666
189 1 0.660229 0.465512 0.0659751
190 1 0.658196 0.515135 0.898997
191 1 0.70324 0.520288 0.0805197
192 1 0.650955 0.491727 0.832007
193 1 0.774144 0.511559 0.0736282
194 1 0.589 0.52347 0.904398
195 1 0.58168 0.50071 0.837194
196 1 0.546587 0.469776 0.889447
197 1 0.616194 0.460961 0.88391
198 1 0.518955 0.531377 0.910213
199 1 0.477034 0.477514 0.894132
200 1 0.513247 0.509237 0.8425
201 1 0.443436 0.516302 0.847048
202 1 0.387909 0.513979 0.887428
203 1 0.38267 0.491372 0.819439
204 1 0.31913 0.519975 0.889441
205 1 0.278269 0.464594 0.871621
206 1 0.313042 0.497848 0.821531
207 1 0.34741 0.457257 0.869011
208 1 0.249188 0.526546 0.893988
209 1 0.342143 0.554125 0.0344536
210 1 0.319224 0.618455 0.0558957
211 1 0.412518 0.539677 0.0281653
212 1 0.39055 0.604205 0.0499787
213 1 0.422248 0.561544 0.0970517
214 1 0.460727 0.589903 0.0453185
215 1 0.530204 0.578675 0.0412031
216 1 0.505639 0.642726 0.0605684
217 1 0.60008 0.56831 0.0361671
218 1 0.574749 0.633234 0.0549517
219 1 0.669624 0.558712 0.0322907
220 1 0.643793 0.623441 0.0511275
221 1 0.713993 0.61308 0.0458424
222 1 0.2083 0.472152 0.875374
223 1 0.24362 0.505404 0.82501
224 1 0.178084 0.533187 0.897212
225 1 0.173617 0.512342 0.829397
226 1 0.103318 0.519066 0.835145
227 1 0.853656 0.375868 0.852276
228 1 0.824508 0.437559 0.871255
229 1 0.755573 0.444314 0.874504
230 1 0.783295 0.38203 0.855936
231 1 0.686153 0.452746 0.879229
232 1 0.712163 0.390254 0.860699
233 1 0.6424 0.397852 0.865369
234 1 0.572951 0.406798 0.87034
235 1 0.608186 0.436808 0.818031
236 1 0.470974 0.456414 0.827594
237 1 0.539198 0.446333 0.822466
238 1 0.504885 0.417339 0.873932
239 1 0.366892 0.667198 0.0719995
240 1 0.525943 0.37567 0.825338
241 1 0.436072 0.65441 0.067036
242 1 0.41126 0.719421 0.0867731
243 1 0.450598 0.388786 0.837845
244 1 0.479986 0.707898 0.0810627
245 1 0.473315 0.685335 0.0147265
246 1 0.416159 0.451229 0.866272
247 1 0.54882 0.69788 0.0748438
248 1 0.618325 0.688586 0.0689922
249 1 0.379126 0.396431 0.845301
250 1 0.307938 0.402575 0.850517
251 1 0.27263 0.369401 0.903317
252 1 0.688076 0.677258 0.0647605
253 1 0.23747 0.409242 0.855291
254 1 0.166236 0.416554 0.860999
255 1 0.775201 0.310991 0.857002
256 1 0.702771 0.319887 0.861653
257 1 0.631335 0.327532 0.866201
258 1 0.56088 0.336635 0.871864
259 1 0.597584 0.366035 0.81874
260 1 0.486837 0.348704 0.882688
261 1 0.513788 0.285316 0.86056
262 1 0.478671 0.32534 0.815888
263 1 0.414865 0.355824 0.890641
264 1 0.371879 0.300167 0.875322
265 1 0.443033 0.293368 0.869125
266 1 0.406954 0.333138 0.823498
267 1 0.343067 0.36245 0.895796
268 1 0.301891 0.308131 0.881829
269 1 0.3365 0.340434 0.829132
270 1 0.266169 0.347526 0.835173
271 1 0.231373 0.314048 0.888314
272 1 0.195977 0.354583 0.840633
273 1 0.340567 0.729674 0.0915967
274 1 0.18758 0.284014 0.840902
275 1 0.258039 0.276575 0.834216
276 1 0.730531 0.257602 0.842637
277 1 0.658847 0.265934 0.846437
278 1 0.710085 0.19125 0.832044
279 1 0.619975 0.233624 0.897286
280 1 0.641154 0.197715 0.8411
281 1 0.58569 0.274468 0.852259
282 1 0.592598 0.751768 0.08945
283 1 0.572778 0.20381 0.852452
284 1 0.50402 0.212925 0.862461
285 1 0.662781 0.742332 0.0833431
286 1 0.433922 0.221247 0.869616
287 1 0.39793 0.260442 0.823611
288 1 0.363641 0.228452 0.87597
289 1 0.328072 0.268012 0.829614
290 1 0.291412 0.23727 0.882739
291 1 0.668755 0.134175 0.821285
292 1 0.599633 0.140735 0.831128
293 1 0.529362 0.149011 0.841492
294 1 0.459268 0.157667 0.850832
295 1 0.390221 0.165152 0.857825
296 1 0.482521 0.917304 0.784337
297 1 0.448655 0.957876 0.736717
298 1 0.412882 0.924829 0.789144
299 1 0.789931 0.82111 0.742496
300 1 0.657954 0.859583 0.819876
301 1 0.719133 0.828272 0.746475
302 1 0.693451 0.891697 0.76641
303 1 0.649105 0.83681 0.752766
304 1 0.552643 0.908276 0.777682
305 1 0.623208 0.900919 0.772515
306 1 0.579834 0.845625 0.758069
307 1 0.510176 0.853176 0.763915
308 1 0.439991 0.861815 0.770105
309 1 0.369586 0.869921 0.775317
310 1 0.298692 0.878188 0.779704
311 1 0.753934 0.78949 0.794535
312 1 0.683491 0.797308 0.799338
313 1 0.640184 0.742658 0.785728
314 1 0.709644 0.734627 0.780286
315 1 0.675673 0.773741 0.733293
316 1 0.613056 0.805084 0.805002
317 1 0.606609 0.782344 0.738185
318 1 0.571063 0.750646 0.790524
319 1 0.543943 0.813642 0.810353
320 1 0.474051 0.821562 0.816347
321 1 0.537069 0.79068 0.74355
322 1 0.467103 0.798626 0.749683
323 1 0.501461 0.759033 0.795856
324 1 0.431344 0.767392 0.802179
325 1 0.39773 0.807369 0.755288
326 1 0.36151 0.775094 0.807517
327 1 0.42535 0.744372 0.734933
328 1 0.355475 0.751865 0.74072
329 1 0.327435 0.814281 0.760217
330 1 0.291901 0.780736 0.811698
331 1 0.28508 0.759193 0.744751
332 1 0.256376 0.822212 0.767734
333 1 0.229226 0.758936 0.785926
334 1 0.194824 0.799165 0.740349
335 1 0.158604 0.765075 0.791027
336 1 0.849319 0.718987 0.772341
337 1 0.876904 0.656829 0.751969
338 1 0.779236 0.725987 0.775558
339 1 0.806503 0.66412 0.756338
340 1 0.737069 0.671708 0.761506
341 1 0.667656 0.680197 0.766197
342 1 0.701751 0.640456 0.813105
343 1 0.631772 0.648491 0.818257
344 1 0.598251 0.687787 0.770785
345 1 0.528977 0.69669 0.77601
346 1 0.459068 0.705046 0.781943
347 1 0.487314 0.642631 0.762831
348 1 0.38933 0.712628 0.787452
349 1 0.417361 0.650499 0.767976
350 1 0.292405 0.65645 0.813451
351 1 0.319283 0.71959 0.791372
352 1 0.347674 0.657685 0.772008
353 1 0.187923 0.702388 0.770181
354 1 0.25753 0.69657 0.766113
355 1 0.216598 0.640213 0.749271
356 1 0.117302 0.709359 0.774686
357 1 0.147147 0.647539 0.752934
358 1 0.903806 0.59544 0.733287
359 1 0.841376 0.625178 0.804142
360 1 0.868291 0.563166 0.785852
361 1 0.833409 0.602346 0.737394
362 1 0.771193 0.632096 0.808545
363 1 0.798086 0.570008 0.788894
364 1 0.763996 0.609729 0.741624
365 1 0.728372 0.577813 0.793608
366 1 0.658938 0.585696 0.79869
367 1 0.694595 0.616979 0.746847
368 1 0.651931 0.561836 0.732227
369 1 0.72174 0.554595 0.727278
370 1 0.556278 0.633367 0.756497
371 1 0.62538 0.62482 0.751296
372 1 0.589951 0.593505 0.803564
373 1 0.582784 0.569821 0.737067
374 1 0.521189 0.602572 0.80991
375 1 0.513996 0.578628 0.742769
376 1 0.451097 0.610326 0.815213
377 1 0.445349 0.588521 0.747502
378 1 0.3754 0.596674 0.752815
379 1 0.409316 0.556376 0.800635
380 1 0.285824 0.634276 0.746062
381 1 0.319927 0.594039 0.793034
382 1 0.250892 0.600188 0.796228
383 1 0.244909 0.578485 0.728401
384 1 0.181033 0.607257 0.799743
385 1 0.175496 0.585386 0.732877
386 1 0.110271 0.615694 0.803338
387 1 0.105645 0.593336 0.736289
388 1 0.138887 0.552642 0.783256
389 1 0.896171 0.501754 0.766641
390 1 0.825857 0.508306 0.769846
391 1 0.755648 0.515571 0.774468
392 1 0.686312 0.522465 0.779333
393 1 0.643026 0.467698 0.765598
394 1 0.713483 0.460128 0.760699
395 1 0.616271 0.53089 0.78464
396 1 0.573574 0.476095 0.770034
397 1 0.547569 0.539679 0.789599
398 1 0.478937 0.54884 0.795111
399 1 0.504409 0.485739 0.774921
400 1 0.471153 0.525263 0.728116
401 1 0.436922 0.495867 0.781304
402 1 0.382548 0.468954 0.746424
403 1 0.403265 0.535462 0.735094
404 1 0.348467 0.531645 0.772377
405 1 0.310489 0.475663 0.752533
406 1 0.279192 0.537572 0.774761
407 1 0.209108 0.545438 0.779611
408 1 0.238949 0.483385 0.757279
409 1 0.169137 0.490629 0.761798
410 1 0.375876 0.155711 0.127295
411 1 0.0992128 0.497431 0.765866
412 1 0.444853 0.154863 0.124176
413 1 0.069367 0.559125 0.787564
414 1 0.515022 0.149559 0.121394
415 1 0.478581 0.113603 0.173161
416 1 0.924454 0.440371 0.746243
417 1 0.549289 0.108956 0.171767
418 1 0.918369 0.369455 0.746948
419 1 0.853828 0.446338 0.751158
420 1 0.889581 0.409498 0.799297
421 1 0.846805 0.375851 0.751486
422 1 0.818385 0.414477 0.804099
423 1 0.783829 0.45289 0.756256
424 1 0.748179 0.421153 0.807846
425 1 0.776895 0.382439 0.756497
426 1 0.677371 0.428892 0.812873
427 1 0.706173 0.388512 0.761273
428 1 0.63423 0.397165 0.766736
429 1 0.563317 0.404334 0.771465
430 1 0.457018 0.455369 0.731896
431 1 0.492017 0.415068 0.778735
432 1 0.416228 0.429051 0.793062
433 1 0.372124 0.374231 0.778167
434 1 0.408836 0.405237 0.725358
435 1 0.343667 0.436394 0.799046
436 1 0.301508 0.38068 0.783384
437 1 0.203848 0.224255 0.159873
438 1 0.239035 0.255802 0.106123
439 1 0.337567 0.413463 0.732002
440 1 0.272389 0.442889 0.80428
441 1 0.275451 0.216702 0.154776
442 1 0.345892 0.21402 0.150319
443 1 0.309915 0.247704 0.100483
444 1 0.414947 0.215852 0.147674
445 1 0.378147 0.260846 0.105721
446 1 0.449196 0.254637 0.098681
447 1 0.484668 0.211596 0.142533
448 1 0.520612 0.248809 0.0922815
449 1 0.59147 0.244659 0.0879882
450 1 0.554604 0.206887 0.136311
451 1 0.624698 0.202133 0.133025
452 1 0.592725 0.264324 0.155342
453 1 0.693542 0.201465 0.117892
454 1 0.723006 0.265281 0.126348
455 1 0.654181 0.266929 0.128231
456 1 0.689229 0.229969 0.180821
457 1 0.267377 0.420883 0.73677
458 1 0.203044 0.450467 0.809457
459 1 0.757218 0.222652 0.172405
460 1 0.231331 0.387847 0.788544
461 1 0.197133 0.42859 0.742392
462 1 0.13335 0.457426 0.813678
463 1 0.128039 0.43596 0.746349
464 1 0.162145 0.395535 0.793769
465 1 0.091575 0.403097 0.798416
466 1 0.0568621 0.443436 0.749906
467 1 0.882893 0.338297 0.799716
468 1 0.841608 0.282788 0.786056
469 1 0.877076 0.313636 0.732797
470 1 0.740654 0.350459 0.80912
471 1 0.811426 0.344178 0.804189
472 1 0.770484 0.288278 0.79037
473 1 0.806566 0.320883 0.73743
474 1 0.736086 0.326631 0.742867
475 1 0.213232 0.319337 0.125517
476 1 0.283501 0.309496 0.120363
477 1 0.351234 0.321839 0.131025
478 1 0.317191 0.272755 0.170461
479 1 0.385823 0.275606 0.172795
480 1 0.420668 0.315292 0.124741
481 1 0.523721 0.267365 0.160707
482 1 0.454565 0.272649 0.167572
483 1 0.490269 0.308548 0.118012
484 1 0.55935 0.304191 0.111904
485 1 0.621573 0.330212 0.1438
486 1 0.689519 0.3268 0.14471
487 1 0.723784 0.361401 0.0929032
488 1 0.759402 0.322151 0.141088
489 1 0.668889 0.3584 0.813698
490 1 0.69743 0.296637 0.79444
491 1 0.66307 0.33489 0.747806
492 1 0.62412 0.304317 0.798661
493 1 0.58938 0.342198 0.751084
494 1 0.551276 0.314041 0.806063
495 1 0.566731 0.27614 0.750906
496 1 0.499781 0.284241 0.762986
497 1 0.515869 0.353196 0.76022
498 1 0.166434 0.445082 0.164907
499 1 0.189462 0.382331 0.145653
500 1 0.259138 0.371746 0.141086
501 1 0.225656 0.412546 0.093537
502 1 0.236361 0.434676 0.160604
503 1 0.32524 0.384519 0.156288
504 1 0.290797 0.429444 0.114334
505 1 0.301457 0.448616 0.18155
506 1 0.361004 0.418625 0.108146
507 1 0.430628 0.408964 0.10252
508 1 0.371792 0.438052 0.175596
509 1 0.395182 0.375537 0.151756
510 1 0.441562 0.426483 0.172163
511 1 0.499085 0.401668 0.0964585
512 1 0.531432 0.361182 0.137638
513 1 0.46427 0.366605 0.146675
514 1 0.511129 0.416748 0.169353
515 1 0.585347 0.37373 0.0972222
516 1 0.553771 0.43851 0.119137
517 1 0.586137 0.395901 0.165606
518 1 0.623828 0.430411 0.115276
519 1 0.655171 0.368095 0.0963952
520 1 0.693476 0.424723 0.113531
521 1 0.656424 0.388996 0.164007
522 1 0.698398 0.446769 0.179427
523 1 0.728398 0.384228 0.160016
524 1 0.797918 0.378862 0.153618
525 1 0.762697 0.417055 0.106916
526 1 0.769136 0.439444 0.173832
527 1 0.443115 0.364478 0.770736
528 1 0.840807 0.432294 0.168063
529 1 0.431429 0.292734 0.770817
530 1 0.362838 0.301465 0.777844
531 1 0.292489 0.309014 0.783122
532 1 0.327559 0.341317 0.731869
533 1 0.223007 0.316592 0.787805
534 1 0.258413 0.349228 0.736032
535 1 0.18852 0.357326 0.740841
536 1 0.11944 0.365759 0.744953
537 1 0.151398 0.325399 0.793438
538 1 0.202958 0.476958 0.113146
539 1 0.268175 0.492084 0.136167
540 1 0.337981 0.480386 0.131207
541 1 0.408043 0.469861 0.126072
542 1 0.455344 0.520658 0.144853
543 1 0.385095 0.531439 0.148598
544 1 0.493959 0.546864 0.0927684
545 1 0.477094 0.459416 0.123475
546 1 0.526857 0.504675 0.138758
547 1 0.595928 0.493972 0.135015
548 1 0.708299 0.542138 0.147159
549 1 0.665494 0.488568 0.133103
550 1 0.735435 0.47968 0.12742
551 1 0.778114 0.533074 0.141942
552 1 0.805516 0.469754 0.120742
553 1 0.805096 0.225731 0.771938
554 1 0.847777 0.525268 0.132175
555 1 0.736416 0.22977 0.777922
556 1 0.669406 0.233079 0.785465
557 1 0.69942 0.268946 0.730755
558 1 0.632184 0.272853 0.737718
559 1 0.603232 0.237115 0.796747
560 1 0.59402 0.213828 0.731236
561 1 0.467725 0.253014 0.817265
562 1 0.181581 0.541163 0.133948
563 1 0.535823 0.244666 0.807476
564 1 0.15847 0.605862 0.153206
565 1 0.213964 0.599695 0.109286
566 1 0.246588 0.554606 0.157598
567 1 0.223771 0.617532 0.177275
568 1 0.353186 0.573687 0.102128
569 1 0.283293 0.585709 0.106796
570 1 0.315508 0.542757 0.152649
571 1 0.292572 0.605982 0.173097
572 1 0.361767 0.5943 0.169661
573 1 0.431354 0.582911 0.164996
574 1 0.502277 0.56968 0.158938
575 1 0.469168 0.612496 0.113007
576 1 0.476987 0.634287 0.180241
577 1 0.538202 0.601251 0.107579
578 1 0.546486 0.623795 0.17425
579 1 0.571688 0.558932 0.154655
580 1 0.606337 0.591048 0.102871
581 1 0.615296 0.613457 0.168553
582 1 0.675392 0.582611 0.0992003
583 1 0.684314 0.606158 0.1645
584 1 0.719573 0.637757 0.11303
585 1 0.745204 0.573281 0.0948299
586 1 0.753256 0.596761 0.160262
587 1 0.787737 0.627853 0.105469
588 1 0.822194 0.587553 0.152861
589 1 0.525969 0.221092 0.741971
590 1 0.493435 0.189163 0.796587
591 1 0.456624 0.228795 0.75108
592 1 0.387848 0.237259 0.757892
593 1 0.423736 0.196902 0.803964
594 1 0.285608 0.21243 0.816446
595 1 0.354668 0.204906 0.810617
596 1 0.319147 0.245595 0.763868
597 1 0.275923 0.19002 0.750931
598 1 0.345637 0.181311 0.745146
599 1 0.215495 0.221129 0.82193
600 1 0.249506 0.253262 0.769074
601 1 0.260762 0.6494 0.125347
602 1 0.235082 0.712045 0.146344
603 1 0.329966 0.636357 0.123676
604 1 0.305212 0.699587 0.143337
605 1 0.375025 0.688172 0.139274
606 1 0.337647 0.657054 0.189828
607 1 0.398849 0.624334 0.118184
608 1 0.443768 0.676517 0.133339
609 1 0.407622 0.645171 0.18573
610 1 0.512671 0.665662 0.127792
611 1 0.487887 0.730408 0.147762
612 1 0.556733 0.719836 0.141811
613 1 0.581924 0.655177 0.12133
614 1 0.625766 0.710232 0.135869
615 1 0.650907 0.646655 0.116799
616 1 0.694437 0.701089 0.131669
617 1 0.72725 0.660415 0.178913
618 1 0.76354 0.692053 0.12581
619 1 0.796287 0.650901 0.173248
620 1 0.866062 0.641978 0.166081
621 1 0.205823 0.197459 0.756014
622 1 0.179467 0.26184 0.774294
623 1 0.767768 0.166351 0.761384
624 1 0.699267 0.169904 0.766552
625 1 0.659992 0.111634 0.756047
626 1 0.562465 0.18131 0.786969
627 1 0.63113 0.174673 0.775696
628 1 0.590466 0.117722 0.765932
629 1 0.521867 0.12519 0.775736
630 1 0.484168 0.165268 0.730252
631 1 0.4512 0.133239 0.784702
632 1 0.414417 0.173241 0.738666
633 1 0.381065 0.140642 0.791797
634 1 0.281515 0.763515 0.162329
635 1 0.311516 0.148135 0.797714
636 1 0.350237 0.751564 0.158677
637 1 0.418903 0.740994 0.153814
638 1 0.385744 0.783909 0.107298
639 1 0.394611 0.804786 0.173281
640 1 0.523754 0.762029 0.095498
641 1 0.454914 0.772939 0.101319
642 1 0.463264 0.794206 0.16804
643 1 0.531561 0.783828 0.161951
644 1 0.499008 0.827094 0.115591
645 1 0.567677 0.816876 0.108844
646 1 0.599454 0.774575 0.155957
647 1 0.636136 0.806196 0.103868
648 1 0.302712 0.126267 0.731448
649 1 0.668502 0.765035 0.150821
650 1 0.712571 0.819762 0.163538
651 1 0.737836 0.756037 0.144331
652 1 0.233419 0.134227 0.737932
653 1 0.547515 0.0614556 0.754616
654 1 0.478464 0.0701931 0.763578
655 1 0.408315 0.0775394 0.77135
656 1 0.658252 0.932123 0.71947
657 1 0.623543 0.973814 0.671935
658 1 0.588126 0.941119 0.725332
659 1 0.553451 0.982078 0.67864
660 1 0.580865 0.917831 0.659211
661 1 0.518373 0.948897 0.73108
662 1 0.511541 0.925605 0.664609
663 1 0.482601 0.990029 0.68311
664 1 0.442021 0.933729 0.670567
665 1 0.373405 0.94354 0.677321
666 1 0.303187 0.952348 0.682089
667 1 0.75428 0.861919 0.695249
668 1 0.789948 0.893857 0.642336
669 1 0.325758 0.815799 0.177411
670 1 0.649913 0.909803 0.65331
671 1 0.719645 0.901358 0.648402
672 1 0.683851 0.868482 0.700288
673 1 0.429782 0.838451 0.120359
674 1 0.614922 0.877587 0.706088
675 1 0.545937 0.885627 0.710751
676 1 0.50621 0.848352 0.181707
677 1 0.514806 0.919011 0.183001
678 1 0.572471 0.822664 0.691429
679 1 0.574314 0.839419 0.17532
680 1 0.538516 0.862257 0.644867
681 1 0.502739 0.830264 0.697021
682 1 0.642901 0.829156 0.171082
683 1 0.476192 0.893513 0.717586
684 1 0.469278 0.870767 0.650751
685 1 0.406409 0.901466 0.722978
686 1 0.433747 0.839 0.70277
687 1 0.363771 0.84717 0.708481
688 1 0.399796 0.879532 0.65633
689 1 0.357422 0.825106 0.641885
690 1 0.336429 0.910765 0.728665
691 1 0.330943 0.888309 0.662347
692 1 0.294377 0.854046 0.71429
693 1 0.288343 0.832614 0.647587
694 1 0.261121 0.895988 0.669036
695 1 0.224082 0.863222 0.720074
696 1 0.218313 0.841184 0.653137
697 1 0.162023 0.840648 0.693521
698 1 0.850786 0.792329 0.671272
699 1 0.884057 0.752407 0.720269
700 1 0.876969 0.727757 0.652878
701 1 0.813937 0.757975 0.722908
702 1 0.745222 0.765693 0.728154
703 1 0.780328 0.798224 0.67563
704 1 0.738199 0.743012 0.662145
705 1 0.807546 0.735088 0.657352
706 1 0.711091 0.806395 0.680436
707 1 0.641599 0.814087 0.686254
708 1 0.668692 0.751175 0.66665
709 1 0.599819 0.759337 0.671771
710 1 0.494991 0.736204 0.729686
711 1 0.530868 0.767962 0.677442
712 1 0.460486 0.775784 0.682762
713 1 0.391363 0.784328 0.688722
714 1 0.321686 0.792069 0.693738
715 1 0.27971 0.738431 0.678455
716 1 0.251558 0.799907 0.699383
717 1 0.223351 0.736734 0.719301
718 1 0.190038 0.777227 0.672904
719 1 0.154059 0.743168 0.723655
720 1 0.119979 0.783541 0.677962
721 1 0.0784603 0.726345 0.659903
722 1 0.911889 0.689722 0.699772
723 1 0.841555 0.696032 0.705282
724 1 0.833646 0.672784 0.638049
725 1 0.904392 0.665629 0.633095
726 1 0.772378 0.703053 0.709282
727 1 0.764566 0.680222 0.642753
728 1 0.799067 0.640722 0.689637
729 1 0.729591 0.648152 0.694916
730 1 0.70261 0.711096 0.714031
731 1 0.660432 0.656264 0.699044
732 1 0.695423 0.688006 0.647838
733 1 0.633161 0.71944 0.718724
734 1 0.564366 0.72757 0.723497
735 1 0.625829 0.695918 0.652371
736 1 0.590568 0.663672 0.703984
737 1 0.509393 0.082063 0.227104
738 1 0.557 0.704909 0.657335
739 1 0.515554 0.649358 0.642874
740 1 0.582727 0.0727591 0.22265
741 1 0.488542 0.712923 0.662252
742 1 0.521896 0.673199 0.709354
743 1 0.453469 0.681586 0.715103
744 1 0.445668 0.658769 0.647786
745 1 0.419036 0.721521 0.668407
746 1 0.383891 0.690046 0.720594
747 1 0.376528 0.667509 0.653705
748 1 0.349831 0.730031 0.674039
749 1 0.3135 0.697268 0.724713
750 1 0.307356 0.676212 0.658649
751 1 0.251196 0.675241 0.698553
752 1 0.217905 0.714705 0.652445
753 1 0.182739 0.680814 0.702735
754 1 0.149084 0.720676 0.656069
755 1 0.112157 0.687478 0.707554
756 1 0.232659 0.12786 0.250058
757 1 0.108391 0.665317 0.638693
758 1 0.337209 0.11947 0.176488
759 1 0.303353 0.120964 0.242517
760 1 0.408536 0.113083 0.173143
761 1 0.439736 0.0944502 0.23228
762 1 0.373108 0.113538 0.237537
763 1 0.416588 0.167614 0.25496
764 1 0.447892 0.172549 0.191309
765 1 0.482236 0.147105 0.24473
766 1 0.51808 0.170293 0.188898
767 1 0.551579 0.136669 0.238032
768 1 0.62218 0.131919 0.231443
769 1 0.588784 0.167234 0.18263
770 1 0.661574 0.164703 0.179023
771 1 0.694595 0.124383 0.22771
772 1 0.178358 0.658401 0.634643
773 1 0.0369798 0.670948 0.641173
774 1 0.93903 0.626509 0.680331
775 1 0.967312 0.564405 0.661875
776 1 0.868852 0.634435 0.684797
777 1 0.895946 0.571916 0.665798
778 1 0.826291 0.578961 0.670592
779 1 0.755949 0.586732 0.67497
780 1 0.686464 0.593466 0.679555
781 1 0.548397 0.609491 0.690321
782 1 0.617281 0.601145 0.684939
783 1 0.479898 0.618965 0.694538
784 1 0.505555 0.55464 0.675115
785 1 0.411219 0.628169 0.700513
786 1 0.141339 0.256441 0.228977
787 1 0.238969 0.183908 0.206539
788 1 0.211562 0.247198 0.225763
789 1 0.346755 0.176034 0.260916
790 1 0.310314 0.179378 0.20181
791 1 0.281158 0.239473 0.221945
792 1 0.351578 0.234131 0.218189
793 1 0.276559 0.183506 0.265094
794 1 0.379456 0.17344 0.196824
795 1 0.420221 0.23132 0.215552
796 1 0.48849 0.229826 0.209082
797 1 0.523923 0.199507 0.256959
798 1 0.556431 0.226105 0.203602
799 1 0.591567 0.192957 0.250849
800 1 0.624787 0.225158 0.198764
801 1 0.628561 0.251439 0.263786
802 1 0.693022 0.253175 0.2465
803 1 0.659715 0.190267 0.244873
804 1 0.724001 0.188771 0.226747
805 1 0.791582 0.184015 0.221624
806 1 0.760682 0.247957 0.240418
807 1 0.436989 0.564261 0.680471
808 1 0.830999 0.241541 0.234659
809 1 0.368922 0.57493 0.687874
810 1 0.313398 0.572379 0.725706
811 1 0.341238 0.636243 0.705654
812 1 0.280178 0.611952 0.678396
813 1 0.334651 0.614355 0.640421
814 1 0.313163 0.548807 0.653509
815 1 0.21126 0.618488 0.682
816 1 0.153024 0.351733 0.197333
817 1 0.115974 0.320646 0.248189
818 1 0.17727 0.288754 0.178577
819 1 0.247915 0.279136 0.173402
820 1 0.185829 0.310628 0.245936
821 1 0.223116 0.341263 0.193383
822 1 0.254321 0.301422 0.24167
823 1 0.291398 0.332791 0.189185
824 1 0.323594 0.293831 0.238087
825 1 0.359608 0.337812 0.196317
826 1 0.429316 0.331622 0.194782
827 1 0.393831 0.292141 0.238577
828 1 0.441504 0.347421 0.26461
829 1 0.367712 0.353417 0.26165
830 1 0.530992 0.27 0.259455
831 1 0.500112 0.324117 0.192653
832 1 0.464821 0.286777 0.239122
833 1 0.511764 0.337939 0.266934
834 1 0.566184 0.323861 0.17837
835 1 0.58851 0.282414 0.223364
836 1 0.619235 0.354672 0.21502
837 1 0.65275 0.29114 0.197107
838 1 0.692264 0.349435 0.211136
839 1 0.655742 0.316097 0.264713
840 1 0.723896 0.288182 0.193625
841 1 0.728953 0.3118 0.259692
842 1 0.793571 0.281319 0.187579
843 1 0.763313 0.344669 0.206799
844 1 0.799582 0.305288 0.254165
845 1 0.832919 0.338633 0.199335
846 1 0.868203 0.299128 0.245184
847 1 0.242493 0.557203 0.659243
848 1 0.840687 0.361565 0.267343
849 1 0.910626 0.353256 0.259153
850 1 0.172797 0.563982 0.664123
851 1 0.142017 0.625758 0.68572
852 1 0.102451 0.57088 0.667277
853 1 0.0717572 0.632081 0.689206
854 1 0.0301107 0.578149 0.671463
855 1 0.93127 0.533018 0.714644
856 1 0.0904087 0.383609 0.268123
857 1 0.12902 0.414867 0.215843
858 1 0.160187 0.373824 0.265083
859 1 0.229954 0.363864 0.261545
860 1 0.198422 0.403893 0.213012
861 1 0.267375 0.393478 0.209281
862 1 0.298741 0.354708 0.257919
863 1 0.335416 0.401351 0.220632
864 1 0.405713 0.393071 0.22061
865 1 0.475778 0.383369 0.218043
866 1 0.523104 0.435594 0.237577
867 1 0.545691 0.37367 0.218431
868 1 0.59493 0.421672 0.233592
869 1 0.629398 0.452331 0.18178
870 1 0.664588 0.412389 0.230308
871 1 0.734253 0.4069 0.225647
872 1 0.804627 0.400209 0.220684
873 1 0.875328 0.392334 0.213926
874 1 0.848487 0.455162 0.234224
875 1 0.918125 0.446167 0.227427
876 1 0.923896 0.509903 0.646638
877 1 0.959685 0.472032 0.693532
878 1 0.996162 0.502836 0.63919
879 1 0.860853 0.540238 0.718375
880 1 0.0818172 0.54084 0.252982
881 1 0.85395 0.516306 0.65185
882 1 0.143477 0.508629 0.184612
883 1 0.175022 0.466559 0.233002
884 1 0.104747 0.477806 0.234763
885 1 0.152259 0.529497 0.251996
886 1 0.213055 0.496935 0.181834
887 1 0.244417 0.455065 0.229376
888 1 0.222438 0.517214 0.250245
889 1 0.278076 0.511168 0.203477
890 1 0.287875 0.531244 0.272119
891 1 0.34841 0.499839 0.198823
892 1 0.310675 0.468043 0.249025
893 1 0.358658 0.519031 0.266567
894 1 0.452414 0.445751 0.239563
895 1 0.418204 0.489073 0.194038
896 1 0.383013 0.456 0.243736
897 1 0.429114 0.508073 0.262099
898 1 0.488572 0.478049 0.190812
899 1 0.499221 0.498436 0.257866
900 1 0.535487 0.528313 0.206736
901 1 0.56045 0.463271 0.186305
902 1 0.606786 0.517722 0.199901
903 1 0.569803 0.487545 0.252876
904 1 0.61356 0.54142 0.267909
905 1 0.63906 0.477343 0.247636
906 1 0.708262 0.469305 0.244767
907 1 0.682166 0.532367 0.262592
908 1 0.77773 0.462504 0.239586
909 1 0.742072 0.50224 0.193675
910 1 0.752208 0.525471 0.260006
911 1 0.812792 0.49423 0.187587