ITEM: TIMESTEP
220000
ITEM: NUMBER OF ATOMS
4000
ITEM: BOX BOUNDS pp pp pp
0.0000000000000000e+00 1.5424502472009342e+01
0.0000000000000000e+00 1.5424502472009342e+01
0.0000000000000000e+00 1.5424502472009342e+01
ITEM: ATOMS id type xs ys zs
273 1 0.0397653 0.0342043 0.0585886
1091 1 0.0778301 0.066751 0.00819378
3442 1 0.00650529 0.0749495 0.0130487
359 1 0.0826982 0.0872379 0.0757712
1075 1 0.110546 0.0247344 0.0529382
3753 1 0.152767 0.0805926 0.0708424
2157 1 0.180797 0.0159165 0.0461649
3183 1 0.146848 0.0574464 0.000227932
1316 1 0.247249 0.0272283 0.0587511
282 1 0.213739 0.067711 0.0126731
3245 1 0.221947 0.0868485 0.0775627
2656 1 0.291624 0.0818433 0.0743657
129 1 0.318294 0.0218044 0.0536809
3973 1 0.283114 0.0614952 0.00860142
266 1 0.352313 0.0560247 0.00438793
250 1 0.360714 0.0744829 0.0703183
2405 1 0.42488 0.0755908 0.0565229
3758 1 0.445991 0.0130618 0.0396273
412 1 0.383301 0.00385397 0.0793858
371 1 0.490846 0.0685922 0.0524845
2307 1 0.515645 0.00487488 0.034475
404 1 0.557518 0.0624733 0.0477689
3780 1 0.625701 0.0547393 0.0432019
693 1 0.693993 0.047869 0.0382024
1958 1 0.723743 0.00913936 0.0859075
3556 1 0.763457 0.0388713 0.0353723
3933 1 0.795874 0.000935683 0.0848777
2077 1 0.834074 0.0321553 0.0344501
1102 1 0.90368 0.0246248 0.0327661
3488 1 0.873174 0.0882913 0.04757
3078 1 0.968809 0.0437084 0.0638265
465 1 0.935729 0.0843339 0.0170805
2650 1 0.0121995 0.0956533 0.0823838
1922 1 0.0494533 0.128302 0.0305755
548 1 0.0224036 0.164885 0.0874828
2141 1 0.0918942 0.157668 0.0824241
3264 1 0.15961 0.15455 0.0846872
2044 1 0.119754 0.12254 0.0251908
3802 1 0.188612 0.127166 0.0313033
332 1 0.230078 0.154427 0.0822763
1053 1 0.257754 0.122913 0.0287118
2885 1 0.299899 0.150723 0.0779513
3697 1 0.325584 0.116599 0.0238568
2703 1 0.392618 0.114282 0.0142198
2477 1 0.371164 0.144412 0.0717277
291 1 0.443226 0.141217 0.0659533
2102 1 0.461196 0.109451 0.00781195
3536 1 0.513072 0.134665 0.0609911
937 1 0.477714 0.176333 0.0146951
296 1 0.528985 0.101664 0.00171201
3363 1 0.548889 0.16796 0.00911567
986 1 0.583998 0.125192 0.0566226
2135 1 0.62111 0.157938 0.00399461
2874 1 0.628885 0.179431 0.0707172
865 1 0.656391 0.115383 0.0524442
2834 1 0.702994 0.168139 0.0648967
2991 1 0.695187 0.145016 0.000338919
545 1 0.730206 0.105058 0.0487812
2150 1 0.802399 0.0959687 0.0466469
2394 1 0.773769 0.16006 0.0604506
1301 1 0.843815 0.153035 0.0568544
2817 1 0.911091 0.146665 0.0423505
3952 1 0.980534 0.13726 0.0367088
2959 1 0.941922 0.106236 0.0883206
1531 1 0.056823 0.197526 0.0343343
3317 1 0.0311476 0.262096 0.0556975
1259 1 0.12554 0.196672 0.036414
2785 1 0.0999275 0.257912 0.0542964
3272 1 0.169387 0.254946 0.0526813
3365 1 0.265876 0.191243 0.0305592
3185 1 0.19624 0.194869 0.0347623
936 1 0.238899 0.251284 0.0504838
1494 1 0.33608 0.18594 0.0264383
1491 1 0.308587 0.246839 0.0467001
923 1 0.406643 0.181832 0.0210425
220 1 0.378724 0.241586 0.0423089
3182 1 0.449204 0.236669 0.0373478
3550 1 0.413297 0.200288 0.0880633
1498 1 0.483624 0.195596 0.0819161
325 1 0.520488 0.230231 0.0304187
1508 1 0.55641 0.189252 0.0758591
3627 1 0.594909 0.221429 0.025785
277 1 0.670139 0.208361 0.0158935
191 1 0.648912 0.246695 0.068195
1477 1 0.715966 0.239528 0.0638323
1110 1 0.7404 0.201081 0.0129581
2967 1 0.784023 0.231814 0.0589768
2627 1 0.809186 0.192318 0.00737842
598 1 0.749361 0.271747 0.0112378
1668 1 0.817661 0.26379 0.0051238
1902 1 0.852654 0.223307 0.0525977
1211 1 0.920834 0.214942 0.046158
1335 1 0.988182 0.206651 0.0398058
1982 1 0.962851 0.270101 0.0595294
3645 1 0.0723994 0.319398 0.0737105
1505 1 0.065326 0.29963 0.00666535
3192 1 0.003398 0.325339 0.0753542
3253 1 0.0379424 0.360563 0.0250782
1002 1 0.141162 0.315316 0.0716899
71 1 0.106874 0.356415 0.0232148
2472 1 0.175835 0.35088 0.0224197
3498 1 0.13482 0.295289 0.00590717
2015 1 0.21055 0.311464 0.0696758
2583 1 0.245672 0.34685 0.0200979
924 1 0.203798 0.291285 0.00333024
2435 1 0.279915 0.307206 0.0670114
1384 1 0.314112 0.345022 0.0185343
961 1 0.348626 0.303969 0.0634232
3279 1 0.273962 0.286974 0.000554543
2857 1 0.417041 0.299045 0.0591775
3381 1 0.383016 0.33966 0.013607
3387 1 0.452131 0.334313 0.00925327
3996 1 0.388781 0.360513 0.0805961
2132 1 0.457914 0.354237 0.0766362
2426 1 0.48553 0.293403 0.0546736
2605 1 0.526347 0.349917 0.0726011
333 1 0.52007 0.328545 0.00491986
424 1 0.553133 0.288555 0.0484875
1103 1 0.612986 0.28872 0.0197789
248 1 0.583741 0.350402 0.036786
1753 1 0.619598 0.309839 0.0842421
2621 1 0.680708 0.280801 0.0153823
2221 1 0.653285 0.344404 0.0313672
625 1 0.722622 0.335912 0.0291859
3636 1 0.687659 0.303742 0.0804981
504 1 0.791185 0.327683 0.0230141
2126 1 0.756079 0.295588 0.076796
2832 1 0.797243 0.350874 0.0895466
2581 1 0.893981 0.27874 0.0645932
3529 1 0.859694 0.319218 0.0181778
3070 1 0.866794 0.342566 0.084972
345 1 0.825013 0.287749 0.0712299
2385 1 0.996868 0.30299 0.00813918
751 1 0.935275 0.33423 0.0791667
3908 1 0.927807 0.311632 0.0133032
3919 1 0.0117356 0.422094 0.0425195
897 1 0.0807124 0.417484 0.0414689
1017 1 0.0452428 0.381516 0.0898959
3901 1 0.149613 0.412283 0.0392642
981 1 0.114504 0.37666 0.0893494
882 1 0.183061 0.371779 0.088332
3777 1 0.252097 0.366903 0.0866568
1856 1 0.217978 0.406478 0.038676
1044 1 0.320198 0.365805 0.0849043
20 1 0.285383 0.408438 0.039789
2763 1 0.35434 0.400721 0.034895
3565 1 0.423319 0.395456 0.030932
214 1 0.493355 0.390582 0.0271197
565 1 0.465846 0.451895 0.0488746
1759 1 0.520675 0.453565 0.00787595
3651 1 0.625099 0.405861 0.0508526
3048 1 0.555337 0.412816 0.0548245
2228 1 0.590602 0.446398 0.00327819
2516 1 0.694813 0.399063 0.0462401
3341 1 0.76423 0.390298 0.0430404
2187 1 0.80539 0.446746 0.0549348
3088 1 0.737254 0.453956 0.0611785
1963 1 0.832877 0.381742 0.0370413
2975 1 0.873591 0.437721 0.0503966
503 1 0.900842 0.373984 0.0329053
636 1 0.969294 0.366759 0.0266399
240 1 0.94303 0.429999 0.0468801
152 1 0.0530981 0.477528 0.0581679
1058 1 0.0197841 0.519356 0.0103398
3406 1 0.0272873 0.540689 0.0756703
2535 1 0.0889291 0.512667 0.00830385
1320 1 0.0964083 0.533998 0.0733331
3046 1 0.12284 0.473111 0.0568073
270 1 0.16531 0.527225 0.0709661
3474 1 0.157903 0.506561 0.00486807
1673 1 0.25909 0.472772 0.0634593
1011 1 0.191836 0.46651 0.0556776
2626 1 0.224978 0.514104 0.0169525
1444 1 0.232795 0.536425 0.0834573
678 1 0.327609 0.463957 0.0566617
2657 1 0.301394 0.527792 0.0777312
3087 1 0.293713 0.505483 0.00996516
2139 1 0.362468 0.498736 0.00550437
1120 1 0.396796 0.456876 0.0524104
3820 1 0.37066 0.520223 0.0717421
905 1 0.440113 0.51392 0.0702799
2345 1 0.432277 0.492677 0.00251386
599 1 0.528751 0.474753 0.0732052
2838 1 0.4948 0.515536 0.0268418
841 1 0.598364 0.468029 0.0696455
3143 1 0.564058 0.509231 0.0214342
674 1 0.632539 0.500844 0.017584
2974 1 0.570149 0.531233 0.0873227
1998 1 0.640125 0.523805 0.0849157
614 1 0.667048 0.461916 0.0659096
3894 1 0.702082 0.492898 0.0134029
2795 1 0.709281 0.516924 0.0782245
3072 1 0.772154 0.486905 0.00878022
1587 1 0.778147 0.50987 0.0739699
2312 1 0.813559 0.541259 0.0216032
3023 1 0.847855 0.50132 0.0693804
1591 1 0.882534 0.533226 0.0169372
3539 1 0.840708 0.477464 0.00316015
3338 1 0.916372 0.493174 0.0649498
1943 1 0.984479 0.484664 0.0606607
89 1 0.950419 0.525894 0.0133966
3040 1 0.0624203 0.574678 0.0251187
1603 1 0.0709711 0.595962 0.0897875
1977 1 0.0374694 0.636245 0.0410566
2762 1 0.131585 0.566542 0.0213072
3603 1 0.106046 0.628108 0.0376115
3773 1 0.140129 0.58822 0.0867742
3142 1 0.197312 0.578268 0.0380396
2355 1 0.26757 0.568952 0.0311622
3420 1 0.240424 0.632096 0.0513558
2063 1 0.336574 0.561465 0.0256553
1198 1 0.310335 0.624361 0.0472649
264 1 0.406198 0.555688 0.0232275
1692 1 0.379143 0.616293 0.0418245
2381 1 0.413082 0.57568 0.0908722
304 1 0.467798 0.578359 0.0460277
3983 1 0.536929 0.571062 0.0404489
3195 1 0.510632 0.634006 0.0602365
2835 1 0.605821 0.563479 0.0358018
3808 1 0.579346 0.626455 0.0548767
3625 1 0.674798 0.556247 0.0318666
2588 1 0.648506 0.618953 0.0488647
3741 1 0.717974 0.611574 0.0452361
1005 1 0.744227 0.548836 0.0258425
1970 1 0.787055 0.603275 0.0410567
2113 1 0.856525 0.596014 0.0357602
2719 1 0.889947 0.555214 0.0832179
1711 1 0.820928 0.563061 0.087512
656 1 0.95877 0.548298 0.0789641
1003 1 0.924262 0.589141 0.0311922
1778 1 0.993843 0.581439 0.0271433
3886 1 0.0810129 0.690085 0.0551795
3144 1 0.0103656 0.697811 0.0588092
1073 1 0.171549 0.64279 0.0576232
3198 1 0.145344 0.705839 0.0769717
2660 1 0.137312 0.685041 0.00993787
3466 1 0.214796 0.696029 0.0709468
712 1 0.206221 0.674706 0.00454578
534 1 0.284421 0.68763 0.0671713
590 1 0.353368 0.679687 0.0619479
175 1 0.318701 0.720226 0.0144978
1634 1 0.275728 0.665829 0.000263246
3062 1 0.440727 0.640267 0.0648395
2933 1 0.415129 0.703381 0.0842616
2639 1 0.40762 0.679389 0.0173781
1412 1 0.483773 0.696792 0.0787197
3623 1 0.476305 0.673159 0.0126724
2558 1 0.546312 0.665541 0.00721493
2354 1 0.553445 0.688657 0.07402
1854 1 0.622832 0.682199 0.0678593
2687 1 0.588925 0.720752 0.0206844
2741 1 0.61602 0.658157 0.00201732
2049 1 0.658214 0.713461 0.0160631
3925 1 0.691941 0.673848 0.0634181
365 1 0.726983 0.706622 0.0107451
1836 1 0.759903 0.666807 0.0585878
3 1 0.803091 0.721954 0.0715374
1451 1 0.795777 0.698715 0.00587937
808 1 0.82925 0.65804 0.0540649
3706 1 0.898667 0.651661 0.0487778
3682 1 0.872369 0.713736 0.068047
3359 1 0.865632 0.691844 0.00259477
1911 1 0.967583 0.643619 0.0449677
2064 1 0.941963 0.706161 0.0629167
326 1 0.046667 0.73091 0.00667658
1082 1 0.0544328 0.752797 0.0725049
344 1 0.0203068 0.793429 0.024295
1707 1 0.0838157 0.811461 0.0475954
502 1 0.0273944 0.81528 0.089893
1518 1 0.11073 0.747918 0.0290427
3511 1 0.154294 0.801567 0.044065
3419 1 0.180157 0.737877 0.0248263
939 1 0.249625 0.728968 0.019745
743 1 0.223912 0.792303 0.0384174
1583 1 0.257717 0.750298 0.0858601
2927 1 0.188538 0.759081 0.0901707
3397 1 0.327927 0.7424 0.0816236
2802 1 0.35555 0.80414 0.0565067
1964 1 0.293159 0.782831 0.0344107
2824 1 0.382072 0.742138 0.0370994
3936 1 0.424838 0.797734 0.049787
1063 1 0.45104 0.735539 0.0305523
2245 1 0.519538 0.727809 0.0261153
2548 1 0.494223 0.789994 0.0445198
2291 1 0.563058 0.783173 0.039598
2272 1 0.59592 0.744087 0.0869045
2699 1 0.63135 0.776478 0.0344128
1146 1 0.700282 0.769969 0.0286273
2987 1 0.665909 0.737768 0.0816085
957 1 0.735022 0.729517 0.0762533
622 1 0.769558 0.761776 0.0237161
3327 1 0.775585 0.784515 0.0898349
837 1 0.811621 0.817277 0.0375087
81 1 0.838287 0.754043 0.0202293
1060 1 0.880881 0.809381 0.0336609
1411 1 0.844877 0.776745 0.0859809
3675 1 0.907721 0.747217 0.0167319
2861 1 0.915581 0.768834 0.0815619
1709 1 0.976924 0.739009 0.0115145
3051 1 0.98508 0.760297 0.0768381
2776 1 0.951144 0.802116 0.0294276
1881 1 0.0577968 0.87546 0.0673394
45 1 0.0504818 0.852681 0.00213991
966 1 0.163424 0.89772 0.0119014
3833 1 0.127106 0.864707 0.0625695
999 1 0.0940562 0.9069 0.0166531
2226 1 0.197642 0.855881 0.0581323
2543 1 0.267369 0.845907 0.0526047
683 1 0.233295 0.886907 0.00548708
1135 1 0.296835 0.904666 0.0262302
2419 1 0.3308 0.866581 0.0741317
844 1 0.32237 0.843039 0.00792276
120 1 0.366555 0.898583 0.0220141
1187 1 0.399167 0.860045 0.0691329
1511 1 0.434242 0.891214 0.0146619
3959 1 0.391387 0.836749 0.00230288
575 1 0.467883 0.852311 0.0628574
3460 1 0.536769 0.845977 0.0575196
3691 1 0.503601 0.884008 0.00842928
337 1 0.511135 0.908693 0.0744616
1078 1 0.579199 0.902146 0.0688684
1025 1 0.604674 0.838928 0.0514471
3076 1 0.572638 0.878188 0.00361047
1629 1 0.647119 0.894743 0.0638973
1655 1 0.673421 0.831512 0.0473035
2872 1 0.715366 0.88815 0.0575431
3362 1 0.742626 0.825146 0.0423141
1386 1 0.784174 0.880055 0.0541014
3684 1 0.854117 0.87259 0.0520261
2608 1 0.890523 0.904737 0.00100277
1637 1 0.924215 0.864331 0.0478954
3803 1 0.993496 0.856601 0.0435253
112 1 0.0238976 0.916942 0.0208231
56 1 0.0675751 0.970654 0.0362745
2414 1 0.0295768 0.937212 0.0873694
3493 1 0.101226 0.927848 0.0820764
2884 1 0.171112 0.919253 0.0765164
96 1 0.137286 0.96131 0.0308975
2232 1 0.240942 0.909583 0.0717982
179 1 0.206987 0.951081 0.0242481
920 1 0.272218 0.966119 0.0393794
3532 1 0.216143 0.971882 0.0906354
1666 1 0.340582 0.959986 0.041244
973 1 0.443155 0.914061 0.0801436
3173 1 0.409424 0.954032 0.0359567
3980 1 0.374476 0.922534 0.0889088
1462 1 0.477794 0.946477 0.0249016
2294 1 0.473644 0.976429 0.0867473
90 1 0.544482 0.969667 0.0829289
3562 1 0.545758 0.941213 0.0209379
2462 1 0.58473 0.999369 0.0309586
1978 1 0.614376 0.934228 0.015353
1686 1 0.61446 0.962455 0.0787124
1012 1 0.653694 0.991787 0.0256619
3403 1 0.682763 0.927545 0.00940709
1326 1 0.683681 0.953805 0.0737808
3876 1 0.723586 0.983279 0.0212939
3342 1 0.7537 0.946012 0.0704641
2901 1 0.793094 0.975796 0.0198423
1553 1 0.751278 0.920186 0.00612859
458 1 0.825594 0.936125 0.0680509
3150 1 0.863117 0.96894 0.0171433
3312 1 0.895503 0.927014 0.0661853
395 1 0.866836 0.991095 0.0831811
3987 1 0.82108 0.913137 0.00320679
2556 1 0.996801 0.979642 0.0408968
3531 1 0.937653 0.982048 0.0808193
766 1 0.932176 0.96024 0.0154115
768 1 0.96558 0.919306 0.0629917
3180 1 0.0459201 0.053805 0.127385
2146 1 0.0798164 0.0102442 0.168819
2331 1 0.00709502 0.0177483 0.174185
3910 1 0.0885667 0.0792247 0.18155
3813 1 0.00111409 0.000560651 0.108098
1154 1 0.117197 0.0460197 0.121618
3193 1 0.157818 0.072168 0.178759
354 1 0.151511 0.00227558 0.163552
1507 1 0.188085 0.039698 0.115519
1489 1 0.258486 0.0449788 0.123476
2389 1 0.227921 0.0713782 0.177429
2702 1 0.29931 0.0700609 0.17364
2677 1 0.333632 0.0367944 0.120974
1476 1 0.3968 0.01385 0.149469
212 1 0.368821 0.0708946 0.169764
1566 1 0.441556 0.065762 0.166731
1161 1 0.443562 0.0369762 0.104676
2940 1 0.513675 0.0307292 0.100485
3576 1 0.512901 0.0604844 0.161592
37 1 0.473403 0.00280921 0.152422
2424 1 0.58441 0.024898 0.0960242
1380 1 0.583422 0.0525118 0.158571
3965 1 0.618945 0.0844716 0.105088
2871 1 0.654254 0.0183033 0.0911469
3669 1 0.653413 0.0459839 0.154248
185 1 0.69148 0.0763344 0.10113
1076 1 0.724752 0.0366894 0.149672
2163 1 0.799047 0.0262661 0.150234
1439 1 0.764643 0.0647111 0.0988098
1548 1 0.770229 0.0891972 0.16149
470 1 0.869586 0.0142606 0.148733
3574 1 0.836609 0.0555264 0.0997017
2380 1 0.838745 0.0843949 0.165853
3757 1 0.907372 0.0468854 0.097279
29 1 0.905869 0.0710762 0.161123
2147 1 0.972803 0.0644251 0.134677
3208 1 0.940644 0.004642 0.147652
2478 1 0.0556769 0.123257 0.133787
1874 1 0.123848 0.114811 0.129885
235 1 0.167906 0.175659 0.149291
3610 1 0.0980893 0.17917 0.149981
320 1 0.192885 0.112778 0.131753
1355 1 0.263781 0.112877 0.128518
609 1 0.236817 0.172532 0.147635
1344 1 0.33441 0.10898 0.123128
1352 1 0.306748 0.169295 0.143602
2002 1 0.376619 0.163569 0.13728
1183 1 0.406248 0.101203 0.11817
3644 1 0.447111 0.158631 0.132417
2377 1 0.477185 0.0978605 0.112904
1215 1 0.518649 0.154375 0.127134
3830 1 0.483188 0.120982 0.178627
3654 1 0.547492 0.0921157 0.109255
1205 1 0.552959 0.115362 0.174198
195 1 0.589725 0.147935 0.123013
2862 1 0.624495 0.108912 0.170508
188 1 0.663779 0.140218 0.118957
1729 1 0.697472 0.101108 0.16665
121 1 0.721098 0.16656 0.166479
1698 1 0.738385 0.128391 0.11321
316 1 0.808113 0.119659 0.109668
1882 1 0.788505 0.158702 0.160938
631 1 0.875348 0.112583 0.110729
3475 1 0.887337 0.181322 0.10196
352 1 0.954819 0.173676 0.0926786
635 1 0.986823 0.131807 0.139795
3703 1 0.91968 0.140972 0.152073
729 1 0.029548 0.186914 0.154137
2247 1 0.0655335 0.220545 0.101804
3766 1 0.070381 0.242275 0.169601
1287 1 0.00164839 0.250667 0.17319
25 1 0.133943 0.217899 0.101525
3093 1 0.139717 0.237135 0.168093
1904 1 0.202858 0.214265 0.10092
880 1 0.208735 0.233934 0.166022
993 1 0.243506 0.270536 0.116274
3280 1 0.27223 0.210426 0.0972272
2123 1 0.342625 0.205434 0.0927464
1948 1 0.277824 0.229926 0.162925
1952 1 0.346967 0.224216 0.159259
3730 1 0.313068 0.265526 0.11292
704 1 0.415885 0.220218 0.153932
681 1 0.38159 0.262071 0.109165
583 1 0.450045 0.257204 0.105305
1305 1 0.484332 0.215895 0.147579
173 1 0.519183 0.253001 0.098196
162 1 0.587008 0.248839 0.093126
244 1 0.55338 0.212346 0.142916
3032 1 0.621877 0.208117 0.13572
3826 1 0.593879 0.269831 0.159442
2777 1 0.685169 0.206617 0.118078
1558 1 0.723917 0.263338 0.129979
3704 1 0.656027 0.269151 0.133321
2836 1 0.751187 0.198932 0.112303
1272 1 0.792156 0.256276 0.123588
1715 1 0.759745 0.224047 0.177363
904 1 0.818894 0.191461 0.10767
1475 1 0.860774 0.246971 0.117584
3551 1 0.893456 0.206562 0.166537
1313 1 0.826929 0.216499 0.171732
1440 1 0.996568 0.228849 0.106915
2227 1 0.928659 0.237186 0.112704
2585 1 0.961517 0.195792 0.159738
3747 1 0.932888 0.260959 0.178065
19 1 0.078673 0.341923 0.13931
2286 1 0.0367879 0.284821 0.122492
2504 1 0.0100113 0.348572 0.140367
3889 1 0.174733 0.274693 0.118533
242 1 0.106092 0.279243 0.120697
198 1 0.148131 0.336074 0.137431
1244 1 0.215923 0.331147 0.13558
3981 1 0.285284 0.326408 0.132784
3774 1 0.354251 0.323884 0.129372
979 1 0.319645 0.285924 0.178318
530 1 0.388099 0.280655 0.17434
1217 1 0.422077 0.319707 0.125955
3524 1 0.525346 0.27359 0.164918
3581 1 0.45645 0.278117 0.171305
178 1 0.490879 0.31401 0.122956
334 1 0.560281 0.310422 0.116365
518 1 0.626134 0.333575 0.150115
1585 1 0.694073 0.327183 0.147033
391 1 0.728336 0.360008 0.0955884
3900 1 0.762282 0.319942 0.142619
1713 1 0.831437 0.312168 0.13722
3567 1 0.900138 0.302591 0.130603
355 1 0.968153 0.293095 0.126319
3002 1 0.941566 0.357459 0.144709
706 1 0.0520977 0.404073 0.155594
2159 1 0.017617 0.444719 0.107905
2761 1 0.0874864 0.437802 0.106571
969 1 0.121229 0.397594 0.155349
2376 1 0.155764 0.432707 0.10485
2883 1 0.164087 0.452358 0.171011
3110 1 0.189839 0.39229 0.154479
2032 1 0.259048 0.386537 0.152645
1959 1 0.225419 0.42717 0.104799
298 1 0.233346 0.447732 0.169986
2506 1 0.327373 0.385887 0.151183
258 1 0.292879 0.428258 0.106474
967 1 0.301146 0.449024 0.173494
2133 1 0.361647 0.421811 0.101738
3097 1 0.43075 0.416047 0.0985202
1544 1 0.369688 0.442567 0.169313
125 1 0.396051 0.381024 0.149012
1016 1 0.439616 0.436523 0.16705
3027 1 0.499851 0.411541 0.0955068
500 1 0.532845 0.371025 0.140312
916 1 0.464694 0.374581 0.145715
3477 1 0.509042 0.430248 0.16533
2452 1 0.590007 0.373345 0.101984
2475 1 0.562411 0.435778 0.120775
497 1 0.59408 0.396151 0.168631
429 1 0.632082 0.428638 0.116797
3201 1 0.659372 0.366952 0.097942
737 1 0.701247 0.421901 0.113344
1173 1 0.664301 0.388909 0.164823
1777 1 0.706479 0.445859 0.178962
2083 1 0.733787 0.382663 0.160641
3797 1 0.803514 0.375537 0.156027
3728 1 0.771096 0.414149 0.10819
2943 1 0.775442 0.437878 0.173807
3026 1 0.872756 0.366339 0.150326
1249 1 0.845352 0.430413 0.168283
604 1 0.839351 0.407134 0.102596
898 1 0.907701 0.398377 0.0986493
1597 1 0.976531 0.389692 0.0939141
680 1 0.914532 0.420814 0.163336
1389 1 0.983202 0.411216 0.159666
263 1 0.0619435 0.500092 0.123852
3750 1 0.026405 0.466665 0.173859
710 1 0.0951299 0.459195 0.172361
883 1 0.130217 0.493523 0.121988
3824 1 0.199645 0.487579 0.12172
2138 1 0.266999 0.49302 0.129244
2096 1 0.335695 0.484294 0.123173
347 1 0.404606 0.478186 0.120217
929 1 0.448874 0.533893 0.137484
103 1 0.378807 0.539355 0.139638
934 1 0.500947 0.537824 0.0925704
373 1 0.474145 0.472362 0.11709
3336 1 0.534879 0.49961 0.139375
2202 1 0.604189 0.491947 0.134842
2108 1 0.714079 0.540787 0.145571
76 1 0.67331 0.485238 0.133082
310 1 0.742891 0.477193 0.125848
1404 1 0.784398 0.532009 0.140254
2919 1 0.812645 0.469746 0.121391
3696 1 0.882293 0.461295 0.116803
596 1 0.853798 0.523868 0.135804
2549 1 0.924228 0.514709 0.129982
1041 1 0.993201 0.507151 0.126246
3860 1 0.956917 0.474988 0.176377
1802 1 0.0782369 0.61634 0.154956
2958 1 0.0358301 0.562547 0.141119
225 1 0.00867709 0.624533 0.15798
3963 1 0.00207935 0.603146 0.0929648
159 1 0.173601 0.547405 0.136243
2204 1 0.104449 0.555515 0.138601
2090 1 0.147221 0.609361 0.152733
1651 1 0.205614 0.600845 0.103902
754 1 0.240319 0.55631 0.151218
1916 1 0.21376 0.620027 0.170713
1997 1 0.344274 0.582254 0.0936352
163 1 0.274715 0.591037 0.09891
1224 1 0.308977 0.54853 0.144423
991 1 0.28354 0.610949 0.16478
1891 1 0.353387 0.602083 0.16087
1661 1 0.422478 0.594727 0.158027
544 1 0.507753 0.562851 0.158601
2054 1 0.474378 0.601374 0.111711
728 1 0.480869 0.62617 0.177704
462 1 0.543994 0.593516 0.106617
3438 1 0.550989 0.617486 0.173039
3942 1 0.578102 0.55426 0.153262
3465 1 0.613764 0.58615 0.102282
2065 1 0.62005 0.609618 0.167443
713 1 0.682177 0.580172 0.0970959
3785 1 0.69022 0.604167 0.162089
2613 1 0.725419 0.634953 0.110541
2881 1 0.750905 0.571875 0.0926643
790 1 0.758654 0.594809 0.158513
3792 1 0.794259 0.626682 0.10578
2134 1 0.827318 0.587049 0.153175
941 1 0.862943 0.61891 0.101158
3497 1 0.897003 0.578334 0.149154
1638 1 0.932226 0.610947 0.0962121
2071 1 0.966191 0.570516 0.14372
1122 1 0.938285 0.63211 0.162099
3543 1 0.0445972 0.657556 0.106435
975 1 0.0513507 0.678482 0.171909
1281 1 0.0183007 0.720076 0.124321
1471 1 0.0876024 0.711709 0.120539
3030 1 0.114106 0.649765 0.103971
3738 1 0.12154 0.670604 0.168858
1151 1 0.179987 0.663252 0.12405
3178 1 0.152174 0.727009 0.14266
2735 1 0.249126 0.654021 0.118549
342 1 0.222735 0.716938 0.136932
1402 1 0.318686 0.646539 0.113709
2995 1 0.292144 0.708455 0.133232
1280 1 0.361712 0.701134 0.129136
2404 1 0.326657 0.665384 0.180403
3490 1 0.387368 0.637512 0.110105
567 1 0.447662 0.664456 0.131123
477 1 0.395596 0.655908 0.177061
2675 1 0.517502 0.656983 0.126033
3740 1 0.490719 0.719739 0.144692
94 1 0.559858 0.71273 0.139982
2617 1 0.586862 0.649812 0.121309
66 1 0.629281 0.705202 0.134488
3795 1 0.655958 0.642781 0.114998
1346 1 0.698736 0.697313 0.1291
2957 1 0.662498 0.665871 0.180636
612 1 0.732034 0.658479 0.176672
1162 1 0.767744 0.690135 0.124602
2067 1 0.800784 0.649952 0.172689
3212 1 0.870186 0.641274 0.16744
3044 1 0.836922 0.681403 0.119933
2649 1 0.906224 0.672931 0.114505
1873 1 0.975133 0.665756 0.110007
1322 1 0.982293 0.686695 0.175196
1769 1 0.912846 0.695829 0.180662
1176 1 0.0614014 0.774574 0.137726
1859 1 0.118382 0.76937 0.0951315
3045 1 0.125926 0.789503 0.161063
428 1 0.196368 0.779675 0.155886
255 1 0.231083 0.813149 0.104772
2124 1 0.266438 0.770736 0.151988
3094 1 0.301088 0.804759 0.101368
2030 1 0.335772 0.763118 0.149696
1567 1 0.422107 0.728068 0.150013
425 1 0.389397 0.766765 0.104142
578 1 0.396323 0.792272 0.169731
227 1 0.527562 0.751331 0.0925973
210 1 0.458217 0.759265 0.0976368
1101 1 0.465458 0.782706 0.163583
1196 1 0.534639 0.774561 0.158504
3149 1 0.501143 0.813563 0.110356
2125 1 0.570613 0.806511 0.105214
283 1 0.603091 0.76702 0.152983
3485 1 0.639109 0.800054 0.100825
3116 1 0.707382 0.792012 0.0951128
1429 1 0.672069 0.760257 0.148255
603 1 0.715979 0.814881 0.16124
3880 1 0.740903 0.752019 0.143076
1340 1 0.810153 0.744837 0.137626
3617 1 0.78345 0.807212 0.155425
822 1 0.879085 0.735767 0.133273
1167 1 0.852348 0.799361 0.151062
2365 1 0.948175 0.728511 0.128669
2982 1 0.921434 0.791279 0.145961
2825 1 0.991047 0.782883 0.141911
2633 1 0.0332197 0.836473 0.15636
2055 1 0.0644945 0.895086 0.133177
3733 1 0.00417356 0.89941 0.176701
2712 1 0.0911867 0.832256 0.113462
553 1 0.161421 0.822705 0.109622
801 1 0.135361 0.885647 0.129169
2948 1 0.16929 0.842819 0.175823
3699 1 0.0981401 0.852875 0.179559
1461 1 0.205867 0.877425 0.124211
1240 1 0.239106 0.833308 0.170982
748 1 0.310583 0.825573 0.168227
1165 1 0.276264 0.867132 0.119727
1703 1 0.337513 0.894817 0.143651
2220 1 0.363179 0.830188 0.122954
2398 1 0.432214 0.821736 0.116784
2616 1 0.407515 0.884802 0.135249
3237 1 0.476325 0.876302 0.128651
2333 1 0.510713 0.83748 0.177222
868 1 0.53106 0.904034 0.181282
1839 1 0.544044 0.869534 0.12277
3982 1 0.578103 0.829804 0.171462
756 1 0.612516 0.862266 0.117318
2738 1 0.602318 0.895368 0.177195
523 1 0.647245 0.82332 0.167264
2827 1 0.680897 0.855742 0.112458
1768 1 0.673006 0.888595 0.172961
2361 1 0.74386 0.880301 0.168535
3966 1 0.749572 0.848967 0.10754
878 1 0.784541 0.907836 0.116841
2668 1 0.812902 0.870003 0.164784
1325 1 0.81764 0.840273 0.103058
1092 1 0.887399 0.831731 0.0989513
805 1 0.890238 0.855026 0.16437
866 1 0.857622 0.896214 0.116902
3988 1 0.999974 0.878035 0.109583
3790 1 0.957607 0.824115 0.0948312
68 1 0.928109 0.886665 0.114347
1192 1 0.961841 0.845413 0.160909
466 1 0.932789 0.908456 0.179879
3288 1 0.0739218 0.990528 0.10223
2734 1 0.0363285 0.957975 0.153082
311 1 0.145752 0.982924 0.0977486
1683 1 0.108482 0.948591 0.148311
2106 1 0.179882 0.939761 0.143026
3219 1 0.222531 0.995994 0.156419
876 1 0.252949 0.93285 0.138335
3779 1 0.30497 0.925573 0.0918144
286 1 0.293639 0.998518 0.162774
2690 1 0.283474 0.98626 0.100347
123 1 0.347556 0.966944 0.132031
1001 1 0.424398 0.955124 0.131045
2249 1 0.50208 0.940703 0.13432
1466 1 0.544393 0.99509 0.147915
2724 1 0.45595 0.917636 0.18131
1432 1 0.573054 0.931787 0.130095
3869 1 0.614142 0.98826 0.14366
3666 1 0.643396 0.925193 0.12585
2955 1 0.713455 0.917014 0.120773
156 1 0.684308 0.980209 0.138456
3392 1 0.75527 0.9727 0.134566
2259 1 0.827831 0.960562 0.133537
252 1 0.899279 0.949501 0.131286
3426 1 0.86154 0.918625 0.18161
3533 1 0.97098 0.9408 0.130185
1810 1 0.0142966 0.0362056 0.237566
3225 1 0.0842984 0.0292538 0.232583
2099 1 0.0190608 0.0878272 0.18641
392 1 0.057529 0.0908222 0.247343
1113 1 0.153612 0.0222856 0.228727
2438 1 0.126709 0.0836957 0.243531
2980 1 0.195604 0.077927 0.240095
895 1 0.222797 0.01646 0.221408
1035 1 0.265342 0.0733514 0.236701
2744 1 0.336736 0.0646036 0.231778
1628 1 0.292649 0.0117586 0.22519
536 1 0.403056 0.0446304 0.222555
2894 1 0.435614 0.0051549 0.268449
2445 1 0.473853 0.031431 0.216169
3726 1 0.515147 0.085395 0.22754
1306 1 0.544239 0.0231861 0.211086
688 1 0.614258 0.0148012 0.206887
440 1 0.586224 0.0781819 0.223603
1598 1 0.619224 0.0410082 0.271857
848 1 0.656184 0.0710624 0.219292
306 1 0.688621 0.0335933 0.267247
1915 1 0.685775 0.00788479 0.202561
1749 1 0.728642 0.0632074 0.214595
148 1 0.757302 0.0258868 0.263721
3376 1 0.802596 0.0520595 0.217281
3971 1 0.874297 0.037662 0.216126
279 1 0.945945 0.0305862 0.212112
887 1 0.0613869 0.144244 0.200684
1460 1 0.0315352 0.15207 0.265564
510 1 0.131872 0.136811 0.197078
189 1 0.100517 0.144758 0.260193
1527 1 0.169027 0.139676 0.258734
738 1 0.201671 0.13375 0.197339
810 1 0.238777 0.133943 0.256783
1297 1 0.270817 0.130351 0.194682
1267 1 0.340323 0.128895 0.189382
1043 1 0.309357 0.127698 0.251355
3658 1 0.411171 0.125298 0.184127
2334 1 0.446092 0.0957014 0.234234
3108 1 0.380137 0.11895 0.24589
1452 1 0.422579 0.173631 0.259957
2557 1 0.451872 0.180606 0.197627
1375 1 0.486289 0.148566 0.2465
532 1 0.520749 0.17738 0.193003
2935 1 0.55575 0.139474 0.239702
834 1 0.624335 0.134911 0.235889
1770 1 0.588879 0.172391 0.187789
803 1 0.656431 0.169481 0.182838
1399 1 0.692976 0.130269 0.229084
387 1 0.758923 0.127087 0.215207
1890 1 0.819373 0.115855 0.246136
2009 1 0.854795 0.150142 0.187603
1468 1 0.887816 0.104198 0.232685
721 1 0.860435 0.174831 0.259434
2441 1 0.919112 0.165808 0.217666
2977 1 0.951621 0.100792 0.198644
1356 1 0.989279 0.0967127 0.253698
1274 1 0.993752 0.154149 0.207489
2393 1 0.962379 0.157916 0.270412
1648 1 0.0345136 0.208761 0.220899
1872 1 0.0779349 0.263642 0.236567
1684 1 0.00788324 0.272131 0.23852
3882 1 0.104754 0.200236 0.216629
746 1 0.174244 0.195623 0.215251
3068 1 0.147416 0.257214 0.234187
690 1 0.243367 0.192012 0.213113
1315 1 0.215951 0.252954 0.232343
527 1 0.350942 0.18244 0.266204
1085 1 0.312324 0.188522 0.209978
1650 1 0.284529 0.249314 0.228893
1824 1 0.354364 0.243667 0.22426
501 1 0.280156 0.189827 0.271337
1732 1 0.382357 0.183645 0.204208
124 1 0.423136 0.23852 0.219656
2603 1 0.491798 0.23696 0.212741
3712 1 0.526613 0.201998 0.258075
932 1 0.559878 0.234395 0.20929
3999 1 0.594287 0.195247 0.253012
3084 1 0.627504 0.230834 0.201761
3868 1 0.629947 0.25367 0.266433
3916 1 0.691946 0.230359 0.183097
1867 1 0.694461 0.255586 0.247794
1599 1 0.662627 0.193323 0.248145
2745 1 0.727922 0.190915 0.229368
1589 1 0.799274 0.183708 0.224058
3360 1 0.763045 0.249794 0.242275
1866 1 0.89706 0.231528 0.232283
2966 1 0.830742 0.243521 0.236844
3559 1 0.865762 0.272706 0.183154
1945 1 0.964972 0.218561 0.225413
951 1 0.0435617 0.306211 0.188237
668 1 0.0503181 0.326983 0.254464
136 1 0.0864489 0.361925 0.205262
2468 1 0.11238 0.298751 0.187314
830 1 0.154828 0.355935 0.203395
390 1 0.119955 0.319821 0.252647
2569 1 0.181194 0.294294 0.18456
2246 1 0.250301 0.289914 0.18244
2574 1 0.188873 0.314286 0.250657
3816 1 0.223766 0.350544 0.201778
2100 1 0.256875 0.309241 0.248394
3086 1 0.292898 0.345848 0.19948
3542 1 0.326701 0.304653 0.244383
3483 1 0.361708 0.342082 0.195696
3736 1 0.430583 0.338155 0.194139
1923 1 0.396291 0.300042 0.239836
2892 1 0.440968 0.354064 0.262036
1472 1 0.369313 0.361079 0.260913
128 1 0.533111 0.275919 0.260133
2378 1 0.499668 0.332645 0.1912
611 1 0.467204 0.294429 0.239341
1302 1 0.510483 0.346775 0.2631
3112 1 0.566895 0.330986 0.182637
2508 1 0.593884 0.291226 0.226891
958 1 0.624647 0.355966 0.217215
3584 1 0.657528 0.293111 0.199602
317 1 0.695978 0.350505 0.213242
1837 1 0.658498 0.317886 0.266568
399 1 0.727393 0.289297 0.195556
2470 1 0.731465 0.313942 0.260974
3241 1 0.796127 0.281414 0.189565
2277 1 0.767387 0.344952 0.208388
138 1 0.801366 0.307362 0.254912
2593 1 0.836711 0.335676 0.202727
2198 1 0.871912 0.298546 0.249249
3877 1 0.90699 0.326157 0.197176
3898 1 0.843091 0.362087 0.268695
2453 1 0.912718 0.350342 0.262511
2293 1 0.974992 0.315786 0.19128
888 1 0.940202 0.284356 0.244142
3083 1 0.98211 0.337502 0.257531
2425 1 0.0176955 0.369868 0.206153
959 1 0.0597971 0.425159 0.22259
3628 1 0.0242147 0.391479 0.272355
3731 1 0.0934013 0.382718 0.270647
2726 1 0.129249 0.418644 0.220686
443 1 0.161997 0.376296 0.268937
818 1 0.230902 0.370833 0.267351
1794 1 0.197589 0.412233 0.219479
1748 1 0.266031 0.406364 0.218385
1400 1 0.299183 0.364785 0.265189
2748 1 0.335809 0.404942 0.21749
2336 1 0.405117 0.398913 0.216046
102 1 0.449141 0.4541 0.234998
87 1 0.474737 0.392471 0.214485