LAMMPS data file via write_data, version 7 Feb 2024, timestep = 40057, units = lj

2324 atoms
1 atom types

-0.06357217040963489 15.575910554917943 xlo xhi
-0.008847904124880741 15.410573521785157 ylo yhi
-0.04905457871712663 15.47105119661778 zlo zhi

Masses

1 1

Pair Coeffs # lj/cut

1 1 1

Atoms # atomic

77 1 6.119439534446182 3.0117566886367984 1.2860199061072648 0 0 0
78 1 7.235402052592028 2.8914105833292503 1.1885563624452757 0 0 0
449 1 9.014951167816825 3.6597696702792533 1.3365114355994758 0 0 0
141 1 3.6684419961682457 5.302829686303731 1.1960483013066208 0 0 0
107 1 5.096515772474037 4.6156507915207525 1.0445727672150604 0 0 0
109 1 6.211669499707639 4.492488242000476 0.8894122762837486 0 0 0
112 1 5.795681332433857 5.418330123776678 1.287714638875787 0 0 0
113 1 6.896465280249437 5.30881733048762 1.1467228087538133 0 0 0
114 1 7.309974268395888 4.3746963507446175 0.7498803725367548 0 0 0
115 1 7.992501673009835 5.206585994348432 1.0386087173233116 0 0 0
117 1 8.449782820302788 4.314334802496322 0.6348061323031022 0 0 0
119 1 8.841635418997004 5.314065961001318 0.3900391810772378 0 0 0
120 1 9.416115322130096 4.64226345500085 1.130152699528427 0 0 0
122 1 9.94101434590313 5.1832852042535045 0.34395579594420744 0 0 0
124 1 10.49689211053788 4.563985410650205 1.1124037396834152 0 0 0
487 1 11.113919669996188 5.41057185460133 1.327512537862664 0 0 0
144 1 4.146088482631979 6.222499939635909 0.7575505230556954 0 0 0
145 1 5.248186719160543 6.0605832834751165 0.5999824832324457 0 0 0
146 1 6.341471490253505 5.900971860636986 0.43667094096210024 0 0 0
178 1 5.977126986979669 6.838280411953578 0.8740397988206097 0 0 0
147 1 7.471814127673981 5.794331869914481 0.2828037867050555 0 0 0
148 1 7.055370816420831 6.657266373342645 0.763080474640727 0 0 0
149 1 7.758998520990929 6.888721464200279 0.0146041327296625 0 0 0
151 1 8.357833086442549 6.27354716570474 0.7608709912903686 0 0 0
152 1 8.85899066913376 6.776382003277102 -0.047512128469925696 0 0 0
150 1 9.459785570227421 6.168547644572097 0.642070891187571 0 0 0
153 1 10.558463454866684 6.0334222733058605 0.6040330304599437 0 0 0
156 1 11.212320773985402 6.87484589155119 0.7985515569861963 0 0 0
170 1 3.799854299887927 7.197812493115367 1.068054829041933 0 0 0
174 1 4.8876700992097675 7.023732939556839 0.97989752899481 0 0 0
177 1 5.451830677425332 7.4261584174903765 0.13619844320285437 0 0 0
175 1 4.53864062135957 7.989223440928792 1.3278272085402845 0 0 0
181 1 6.560405078626254 7.216386931857379 0.013912974525713594 0 0 0
180 1 6.729489247437892 7.594537182356331 1.12632129122991 0 0 0
179 1 5.632948311551772 7.7869064017651 1.223254921832387 0 0 0
211 1 6.221585672973653 8.196166066984391 0.3707512438118713 0 0 0
182 1 7.899668887343511 7.287842024049396 1.0497379675821337 0 0 0
183 1 7.34828079959799 7.930344996847846 0.3174431178101679 0 0 0
184 1 8.997881192956816 7.148168238846305 0.9771164468245952 0 0 0
185 1 8.444236972951659 7.752750416284386 0.22424054912637365 0 0 0
187 1 8.591831143880896 8.136373446953934 1.2678889129810256 0 0 0
186 1 9.565470992110036 7.5967051996057755 0.15121128833636546 0 0 0
188 1 9.679351527031287 7.982149001977266 1.2071065970097419 0 0 0
189 1 10.100927490191305 7.005038018661257 0.9108559595863128 0 0 0
191 1 10.779637093493536 7.835523404334664 1.1026474979979548 0 0 0
193 1 11.906918495235214 7.694542855262615 0.9706408636100243 0 0 0
209 1 5.128061481330412 8.401291883864733 0.48169448904975254 0 0 0
210 1 4.759941730231988 9.401249049229214 0.823699186525315 0 0 0
212 1 5.873340912457748 9.183007492871809 0.7038467317900028 0 0 0
214 1 6.986002836924503 8.956716007583122 0.617178060910362 0 0 0
215 1 8.066743894572703 8.750323352723754 0.5204819927201283 0 0 0
216 1 7.695905261697768 9.773405331364655 0.8469078066368949 0 0 0
217 1 9.151754283861482 8.588712385829755 0.426051745474481 0 0 0
218 1 8.768047350746405 9.59434090565407 0.7060799363181244 0 0 0
220 1 9.856006213811508 9.441587773628218 0.6318988778150908 0 0 0
219 1 10.24689422888943 8.444693759413948 0.35694595441568167 0 0 0
221 1 10.964302227486495 9.267588505003793 0.5385790088324838 0 0 0
585 1 11.463117819989515 8.647885654994553 1.2734754996070594 0 0 0
239 1 5.515005484797439 10.165950766786928 1.0489146911765443 0 0 0
241 1 6.600797062944567 9.955361102414377 0.9416497186382946 0 0 0
242 1 6.235750749839081 10.949025208755518 1.2553173612040986 0 0 0
245 1 7.174345845511326 10.416156744073625 0.11230668814616439 0 0 0
247 1 8.384675985902458 10.603455867112448 1.029283955607762 0 0 0
244 1 7.308258292320533 10.764382943895848 1.1511398264976778 0 0 0
248 1 9.459757398043221 10.442262021981865 0.910289128777458 0 0 0
252 1 10.55352583660711 10.27130310835703 0.8230363702570701 0 0 0
640 1 8.010050665704279 11.589533021048231 1.3381950687346618 0 0 0
282 1 9.081712772890766 11.419338883037208 1.2206233916518494 0 0 0
285 1 10.180956663743837 11.26729884127235 1.1041858796632606 0 0 0
410 1 5.605266283838955 2.367254620899157 2.0418787020764784 0 0 0
412 1 6.711184334724142 2.3306245843214572 1.9801634280182885 0 0 0
760 1 6.149242919522584 1.7455097316721597 2.7626570108229536 0 0 0
415 1 7.250656260605605 1.6951708145408244 2.7445638576514795 0 0 0
414 1 7.805527598977856 2.2153923607910433 1.9219036512497734 0 0 0
417 1 8.347646505877654 1.5973420068908188 2.700458523261671 0 0 0
770 1 10.119139022840445 2.436721707356835 2.7562975769854465 0 0 0
437 1 2.9759246975370037 3.460316911244291 2.585379244728189 0 0 0
438 1 3.50808290167255 3.9223119614393274 1.735721105104778 0 0 0
441 1 4.083610887829924 3.313612249101083 2.4950425234089493 0 0 0
442 1 5.191302748787416 3.2622637632975633 2.4268810149053484 0 0 0
443 1 4.608472060688355 3.785948998146241 1.6497632181039001 0 0 0
478 1 4.74298663619431 4.172230671789724 2.7296803475657807 0 0 0
445 1 5.695925777769504 3.948398823321099 1.6854093327826614 0 0 0
444 1 6.255820277259253 3.26816233153682 2.345031155012025 0 0 0
446 1 6.788946370974609 3.8331776725121847 1.5681234120242866 0 0 0
482 1 6.90185773566293 4.131088388580332 2.61515487096745 0 0 0
448 1 7.894017662622266 3.7422316743622837 1.4239297947528045 0 0 0
447 1 7.339450476171208 3.1907937765767422 2.2385625314031223 0 0 0
481 1 7.979472676937401 4.058295741553395 2.481566846102011 0 0 0
450 1 8.427534477930925 3.1003723419977978 2.114826441571063 0 0 0
452 1 9.063204149899676 3.9858125723056363 2.3878476434324343 0 0 0
451 1 9.53236203918886 3.0152946085791426 2.0408462375568615 0 0 0
453 1 10.59229335544053 2.9318549302062866 1.7839656987782593 0 0 0
455 1 9.992506345016922 3.998165002568925 1.9099149128886121 0 0 0
454 1 11.069908701598846 3.934745436467406 1.8511566116799651 0 0 0
456 1 10.545316443422324 3.4667056792888884 2.714376406966293 0 0 0
459 1 11.612401444685055 3.331884574853491 2.589273348989254 0 0 0
475 1 3.1060486604494475 4.882379961469336 2.042382409796694 0 0 0
476 1 4.201669180861315 4.731466088674041 1.9537885645214446 0 0 0
477 1 5.251057448513205 4.8933252845966795 2.0857223994397396 0 0 0
143 1 4.690148958715499 5.5770716836069445 1.4417732335032825 0 0 0
479 1 5.817192564014313 4.206130978316725 2.7236305851799103 0 0 0
480 1 6.3543002426857935 4.7886324494317725 1.9548311410039498 0 0 0
483 1 7.442682251065077 4.663356402286076 1.8109402154484346 0 0 0
512 1 8.094682824162781 5.464751155399565 2.1031706107744794 0 0 0
513 1 7.045234642466918 5.569084765412726 2.2487532825394076 0 0 0
484 1 8.5435143707211 4.592034525336354 1.6960590100304611 0 0 0
834 1 8.659269908510284 4.9076708032104905 2.7327967206230035 0 0 0
485 1 9.508431082639047 4.971130140115111 2.156650439664289 0 0 0
519 1 10.018568248081706 5.527071397733614 1.3939935624693929 0 0 0
486 1 10.57873336666968 4.914293332469165 2.16315244893439 0 0 0
488 1 11.66214335981379 4.80196750095219 2.063762824843535 0 0 0
498 1 2.382456507801736 6.838150206280631 2.645859756637983 0 0 0
499 1 2.7223693554076545 5.859120487689784 2.3666514137673795 0 0 0
500 1 3.829043672847327 5.677306484591173 2.259499273793284 0 0 0
501 1 3.2987570350517412 6.272244633741745 1.5279223750020463 0 0 0
502 1 3.484889373319554 6.644862356183467 2.5593688825798395 0 0 0
503 1 4.865782407068051 5.867482462537988 2.462048001876708 0 0 0
506 1 5.409930602783316 6.35675154802483 1.6743683438702122 0 0 0
504 1 4.3274306587489715 6.540169193436739 1.8005323488530907 0 0 0
508 1 5.617039037913013 6.677955245230553 2.7220339902668997 0 0 0
509 1 5.965303462845667 5.7219682578087205 2.3683632225375124 0 0 0
507 1 6.498414640665481 6.204973298788688 1.5658541704075921 0 0 0
510 1 6.705238121165136 6.497938194243684 2.64304688973257 0 0 0
511 1 7.579844392570999 6.078773327751973 1.4480862759678246 0 0 0
514 1 7.8020369109849 6.329173980367946 2.5889469379132186 0 0 0
545 1 7.247877781980756 6.973341313602826 1.8494696183456656 0 0 0
515 1 8.940472746188735 5.624052952718178 1.4563499126776756 0 0 0
517 1 8.967489212559054 6.012835620662485 2.504675781963478 0 0 0
516 1 8.439094303904717 6.650196361348637 1.7852554160657421 0 0 0
518 1 9.529147199945958 6.5049785873830395 1.6961662163775235 0 0 0
869 1 9.660548621765798 6.860901894068147 2.714958710187799 0 0 0
521 1 10.087997389162483 5.875343862431673 2.4372533226734596 0 0 0
523 1 11.18631526372571 5.77929812878843 2.37780557447075 0 0 0
520 1 10.645713945146035 6.387683421440662 1.6434767531708958 0 0 0
522 1 10.752923100257131 6.752483327248648 2.6639269470710003 0 0 0
524 1 12.28846263604078 5.659771433498257 2.269481712734708 0 0 0
525 1 11.743049082608318 6.252433675601216 1.533836260882987 0 0 0
526 1 11.846812332439018 6.627114685652838 2.5676202425537116 0 0 0
528 1 12.960861770551233 6.489297791637037 2.442676825098456 0 0 0
562 1 2.6206567511608068 8.267723419719553 2.117195981904606 0 0 0
538 1 2.962960500080615 7.277152645521653 1.8097985298132957 0 0 0
539 1 3.9798230204864895 7.51502539804618 2.1400692946847735 0 0 0
173 1 3.4633213284343918 8.186637701698633 1.4067742025673358 0 0 0
540 1 5.074549048801675 7.322878360270331 2.0448272318944856 0 0 0
570 1 4.7304689299904625 8.28612144334516 2.3610181359850446 0 0 0
541 1 6.1635558730340065 7.1526247959234395 1.9181467473641418 0 0 0
543 1 5.813257200272551 8.097560693874247 2.2642647905326885 0 0 0
542 1 6.906724049353026 7.930809412941006 2.1740915861360737 0 0 0
544 1 7.504501509664157 8.321823551348837 1.3547492060321076 0 0 0
546 1 8.030336827308679 7.680071213393985 2.0700022400122453 0 0 0
547 1 9.11554817442991 7.502352430392414 1.9898678076895635 0 0 0
549 1 10.221551359163557 7.365382825094909 1.946622851840036 0 0 0
548 1 10.91742565900811 8.202853255937121 2.1305467966097256 0 0 0
550 1 11.321139706102551 7.233731014208867 1.82218143178114 0 0 0
552 1 12.413583781761707 7.081587594868967 1.7175401303054179 0 0 0
551 1 12.000185315573965 8.049515284909921 2.0134813010203128 0 0 0
911 1 12.53855667039305 7.4622515268619605 2.7441782138243456 0 0 0
912 1 13.640436783954332 7.326645592779739 2.6081971369366967 0 0 0
554 1 13.083735142467578 7.927120584172095 1.8876364633954223 0 0 0
564 1 2.283642726293974 9.308256774710822 2.3933551163310134 0 0 0
566 1 3.6384028427643336 8.487693661517115 2.446667191418175 0 0 0
565 1 3.131358232913976 9.175619121690376 1.721399080362322 0 0 0
569 1 4.213163175317871 8.968531018135149 1.6656439372925207 0 0 0
568 1 5.308899640412311 8.764996445908729 1.5356751006290312 0 0 0
572 1 5.45558999575519 9.062894457900022 2.590045624846499 0 0 0
571 1 4.387068073488837 9.26764382478437 2.6845002461133114 0 0 0
603 1 4.965378354427301 9.724294035542805 1.8704286373562908 0 0 0
213 1 6.385291748638805 8.546043477647384 1.4428807053812922 0 0 0
573 1 6.540821059312908 8.878871128850099 2.495312457016424 0 0 0
607 1 6.040562171772194 9.515220174929553 1.7710228319204226 0 0 0
574 1 7.672863344871313 8.66807711138095 2.389571293661066 0 0 0
577 1 8.213004947907258 9.129593226562571 1.5581481242779203 0 0 0
575 1 7.126727700097324 9.312075330153952 1.6685230288177553 0 0 0
576 1 7.281536852743207 9.650781549138584 2.6916284857701074 0 0 0
578 1 8.364764466585942 9.5050052869773 2.58991434678491 0 0 0
579 1 8.74643443296656 8.497072338871256 2.2863278749015374 0 0 0
580 1 9.296950688514102 8.98298904960251 1.4714976486766131 0 0 0
581 1 9.443220049430227 9.32167193162071 2.4731239840345824 0 0 0
582 1 10.364450419730169 8.81053628160545 1.3858772569362992 0 0 0
583 1 10.518245706684029 9.190017188747959 2.3929216358646346 0 0 0
584 1 11.073969980307062 9.635295429843195 1.5531329387253445 0 0 0
586 1 11.596601378790096 9.035671196619084 2.29090107363086 0 0 0
587 1 12.155254239800852 9.49487063223918 1.4351288775015043 0 0 0
588 1 12.6828084003313 8.886938798081399 2.1794079016299692 0 0 0
620 1 13.377753093181814 9.712295350965844 2.3510294860421057 0 0 0
601 1 3.8545919945899323 9.938525374544486 1.940990567169872 0 0 0
602 1 3.503547158329176 10.92618917341938 2.257420072851914 0 0 0
273 1 5.139404249521338 11.156036740339779 1.3552000346820032 0 0 0
604 1 4.59335452874155 10.698241332282578 2.1774045436430667 0 0 0
608 1 6.769397479924262 10.306104399306562 1.973968405479708 0 0 0
605 1 5.680841030892726 10.50334258329399 2.076207010778387 0 0 0
610 1 7.827778647683439 10.138123905335865 1.8654143451352494 0 0 0
611 1 7.451023074122187 11.129384596689079 2.1774476359253256 0 0 0
613 1 8.902478529245846 9.964188357389371 1.7502326967574187 0 0 0
612 1 8.52874810886451 10.950241962231967 2.0687822781751675 0 0 0
614 1 9.600194901737472 10.79448075586351 1.9496734025666513 0 0 0
615 1 9.990524995328666 9.80705839179826 1.6480633857096676 0 0 0
616 1 10.681607160552707 10.621926396250798 1.8427037736894494 0 0 0
617 1 11.214612015035277 10.015422567125963 2.5771243190815945 0 0 0
969 1 10.139696940691664 10.186445567671084 2.683009764150425 0 0 0
618 1 11.762965881774175 10.476088838622838 1.7292324771302547 0 0 0
619 1 12.289163193800796 9.860728681111052 2.4736378411976303 0 0 0
975 1 12.980812128078778 10.700155158227252 2.6326696897687705 0 0 0
634 1 4.237162782045543 11.69441968203372 2.47515324603212 0 0 0
636 1 5.320514572724647 11.481087749496705 2.3963994339257333 0 0 0
669 1 4.9402619128420255 12.497149101201403 2.6697277038865224 0 0 0
641 1 6.940956307365774 11.771335207981311 1.4412176068937612 0 0 0
638 1 5.8475513317284635 11.967441822559847 1.5618743270087012 0 0 0
637 1 6.389724861319839 11.294526434882918 2.277045081352121 0 0 0
639 1 6.015147738143605 12.288663164598088 2.583942220019132 0 0 0
642 1 7.085492800457409 12.117223050201652 2.481575067058405 0 0 0
643 1 8.157169757197876 11.948115968878815 2.3636922278310992 0 0 0
646 1 9.215223385517325 11.79255736403265 2.2479022914994986 0 0 0
647 1 9.79206509593437 12.25770674018985 1.4205504642800113 0 0 0
645 1 8.703587652628357 12.433068459072677 1.504813111117666 0 0 0
649 1 10.293729384931895 11.620812774833396 2.138353164384407 0 0 0
650 1 10.996301778976104 12.443058736855935 2.2906320310658925 0 0 0
651 1 11.383528640136207 11.449462399474275 2.007325073423583 0 0 0
673 1 6.56844587390582 12.775589416171702 1.757582829630528 0 0 0
1027 1 6.713369529616186 13.147743231906944 2.7772722354827932 0 0 0
644 1 7.6375996940778235 12.59437585114388 1.6338461048327833 0 0 0
676 1 7.768129431626231 12.939346662533744 2.6632523708426072 0 0 0
679 1 8.828142052689271 12.796111921823629 2.540573215043557 0 0 0
682 1 9.923749547643215 12.622365566420141 2.4154605561955353 0 0 0
677 1 7.930943881190885 14.010745220316588 2.638384203849736 0 0 0
737 1 7.7337364010414085 1.2218890465223002 3.5692647152727934 0 0 0
740 1 8.874266160695095 1.0367881088873685 3.481932588259561 0 0 0
756 1 3.424017162100381 2.001889303770434 4.030577065219131 0 0 0
758 1 5.04394646129185 1.8066492304617692 2.8648198558575753 0 0 0
759 1 4.515537728399245 1.8590923063678466 3.8944551835259733 0 0 0
789 1 5.227726444999341 2.7068508326258818 4.132791216407518 0 0 0
790 1 4.620327392774696 2.7273706638009108 3.2477858921873475 0 0 0
762 1 5.624738964514758 1.751754124778588 3.8012860270896196 0 0 0
761 1 6.6427072422194815 1.4532205797694078 3.6605956151088455 0 0 0
764 1 6.811505675850908 2.6296553930312365 3.023000894032854 0 0 0
794 1 5.73075515767305 2.650034105212891 3.137952548841801 0 0 0
763 1 6.317443136463222 2.5664535593088647 4.030828666909401 0 0 0
766 1 7.896709570738883 2.5670625555380573 2.949534378556975 0 0 0
765 1 7.345235093365548 2.2328194979632228 3.8536202645006883 0 0 0
767 1 8.423075195120871 2.0474137757818567 3.7159250074619 0 0 0
769 1 8.982994000485501 2.4817992153802546 2.8462988970480225 0 0 0
768 1 9.519016758054688 1.9376900430675061 3.6006630551833245 0 0 0
771 1 10.65085586119663 1.8411860105815105 3.523199170460692 0 0 0
805 1 12.183064562061537 2.742590547949465 3.351292975912975 0 0 0
786 1 2.004495776211811 3.952180237366014 3.7090276809666043 0 0 0
787 1 3.529491033933836 2.823019003694166 3.3103445574343238 0 0 0
788 1 3.112462967820998 3.803706297577626 3.62080660621558 0 0 0
791 1 4.203893008365653 3.684724460144246 3.538429274233395 0 0 0
792 1 5.294989526617176 3.586160145326068 3.4721559279061656 0 0 0
795 1 6.379991650568055 3.532202099140519 3.4041286976170966 0 0 0
797 1 8.011727946111884 3.0146508641536114 3.9998686532983516 0 0 0
796 1 7.446235473480728 3.497330864480692 3.264323975121031 0 0 0
830 1 8.104653439790052 4.103977191221911 3.9753175984308844 0 0 0
799 1 9.05744561521723 2.9176029647857535 3.875571663769376 0 0 0
798 1 8.498737031116105 3.4196695555330083 3.1312202378447958 0 0 0
800 1 9.57122502213582 3.3722908486363887 3.0618877699138416 0 0 0
801 1 9.654632387744245 3.802626808034117 4.057118140159799 0 0 0
803 1 10.119850585848154 2.8324583314970955 3.763833800348071 0 0 0
804 1 11.105068267188244 2.8442947910340584 3.444311510574005 0 0 0
802 1 10.644193213100545 3.8199160281049203 3.7327665729100707 0 0 0
806 1 11.713162787012607 3.728864120780933 3.618322287853499 0 0 0
808 1 12.789045952842018 3.6231813156074018 3.510286402418783 0 0 0
818 1 2.560909767439424 4.4293435523231555 2.8853613564931457 0 0 0
816 1 2.1583545847827765 5.397138728916928 3.1781212158294108 0 0 0
817 1 1.6032935108583692 4.925128700828544 3.999744554298641 0 0 0
820 1 2.6946556865726325 4.780983492481711 3.9301531315306892 0 0 0
819 1 3.657518523205909 4.286076683719101 2.798936325053733 0 0 0
821 1 3.256747853087292 5.253254334607293 3.1118774023920848 0 0 0
822 1 3.7939327180066504 4.642340672181767 3.8375415304187888 0 0 0
824 1 4.877730027216559 4.527447999528263 3.776266518464664 0 0 0
823 1 4.354441717302932 5.109321898786954 3.0314101265830606 0 0 0
825 1 5.4373053037311365 5.157879700048564 3.1021975202481444 0 0 0
862 1 4.492324393837221 5.470673505045189 4.079860837894189 0 0 0
829 1 5.571720156336573 5.40960308343461 4.101017964903417 0 0 0
827 1 5.9591307946406085 4.460175124486373 3.753572397707014 0 0 0
826 1 6.510697478872001 5.046354577128776 3.0429001522451555 0 0 0
828 1 6.714310880170853 5.3151912140613256 4.104632695904422 0 0 0
832 1 7.079998559282672 4.3845186539769045 3.7045362892781286 0 0 0
831 1 7.608488838934 4.934443605136271 2.9494435026024264 0 0 0
833 1 7.830266016958272 5.139304522631903 4.105618237024492 0 0 0
835 1 9.028566292524031 4.289404583721493 3.437729016104454 0 0 0
836 1 9.491444659969241 5.398479449739444 3.280241201963176 0 0 0
837 1 10.000266055074656 4.386710941238411 2.9842836556101844 0 0 0
840 1 11.128419596360722 4.329556748777701 2.9039434927502175 0 0 0
838 1 10.635269964474302 5.27965441843987 3.191593833201997 0 0 0
839 1 10.085894330002063 4.798608031892391 4.041581080419073 0 0 0
841 1 11.22685222688633 4.7064178104978875 3.946474825743399 0 0 0
842 1 12.227566851638418 4.208355339189226 2.7801138365175073 0 0 0
843 1 11.764761351617873 5.18520288951222 3.1243106984998903 0 0 0
844 1 12.33294362557882 4.604167228131835 3.8366799586615175 0 0 0
1241 1 11.899565023573977 5.564342545928103 4.14309346147377 0 0 0
846 1 13.428918581880918 4.473733957631972 3.7065673713382523 0 0 0
845 1 12.868319041899829 5.0671830201125845 2.979119411597056 0 0 0
848 1 12.99868830694738 5.459860894622273 4.010377918716711 0 0 0
849 1 14.0907445300501 5.316869404103979 3.874268515817901 0 0 0
857 1 1.8045265658054044 6.379023272618367 3.4571969691510795 0 0 0
859 1 3.3894831742497904 5.597798455979641 4.14279932357171 0 0 0
861 1 3.9823786273850565 6.050728754892524 3.3077577721593903 0 0 0
860 1 2.891423469234081 6.2225285275418285 3.391969983968864 0 0 0
505 1 4.4995189450625945 6.862309867396276 2.845630832272255 0 0 0
863 1 5.052410023209367 6.143264610577345 3.4550825748603553 0 0 0
864 1 6.157548383617844 6.008617563704924 3.4339561091395927 0 0 0
894 1 6.906441446459818 6.806229077750695 3.6965020445340917 0 0 0
896 1 5.7939528983507875 6.9746640527758785 3.776501594081211 0 0 0
865 1 7.2691110660986595 5.841535485498536 3.36663414223578 0 0 0
867 1 8.359284187946892 5.6793487955015065 3.355231075117986 0 0 0
866 1 8.004912069486682 6.660369957581407 3.6286420454238697 0 0 0
868 1 9.14509667308285 6.43437789835858 3.554467140755394 0 0 0
870 1 10.222449793316756 6.252622151733004 3.46698564229158 0 0 0
872 1 12.412024839803298 6.045462185718212 3.2871746840906355 0 0 0
871 1 11.323379792817034 6.141513816132077 3.3919097900552395 0 0 0
908 1 12.015284434262833 6.995944288499442 3.577211429667407 0 0 0
873 1 13.537586853351659 5.905688105162275 3.1713598579140965 0 0 0
874 1 13.130229233909105 6.8696709858805995 3.4703716181861948 0 0 0
875 1 14.23560542113289 6.736006649093354 3.347098864290966 0 0 0
1249 1 14.792382461551503 6.120241671255234 4.084485029888347 0 0 0
880 1 1.0905141443283097 8.3269754878712 4.022215130358063 0 0 0
884 1 1.4434738025525047 7.361216769265237 3.7420874825127766 0 0 0
883 1 2.533027384309796 7.196355989639409 3.670427815419783 0 0 0
882 1 2.0323397543856374 7.820150608247359 2.934997541271484 0 0 0
885 1 2.190164720565321 8.166557831753197 3.970971040860342 0 0 0
886 1 3.1099381726193873 7.616622382267051 2.8592373945162013 0 0 0
887 1 3.6311364620979716 7.006224677409086 3.615543192414686 0 0 0
888 1 3.2787068006594686 7.97373580882255 3.9316528587531074 0 0 0
889 1 4.150293338624381 7.843212971725868 3.1867595464790557 0 0 0
892 1 4.664761715332625 7.17699517744902 3.88518049848742 0 0 0
891 1 5.2477576651457465 7.636151414433377 3.080929911348814 0 0 0
893 1 5.450482091895529 7.950076051543376 4.118128148284548 0 0 0
895 1 6.352199741275285 7.458672677487034 2.976083395087273 0 0 0
897 1 6.540834274078182 7.758074320888359 4.02411187891723 0 0 0
898 1 7.449059429008123 7.275879271479749 2.900936327276767 0 0 0
899 1 7.644715169344916 7.61059823756047 3.940994807415179 0 0 0
931 1 7.087268946149605 8.240449228686535 3.217714747087974 0 0 0
900 1 8.197953737883644 8.054538136422359 3.1119361166246318 0 0 0
901 1 8.580861500633532 7.051840449494576 2.8174240455118458 0 0 0
903 1 8.762250012035436 7.42472796965701 3.8349208367915626 0 0 0
902 1 9.30899053487584 7.880978199388467 2.9968434018636443 0 0 0
904 1 9.451692144691936 8.257819637308542 4.04690908809468 0 0 0
905 1 9.846429431795405 7.267087927240574 3.747361327618611 0 0 0
906 1 10.921838128165547 7.115108686078369 3.675826233156495 0 0 0
907 1 10.540822502776468 8.109559139305274 3.955212991349268 0 0 0
909 1 11.443998296474437 7.599195655390175 2.8496996159071233 0 0 0
910 1 11.622465390261011 7.975082408179068 3.858216383159081 0 0 0
942 1 13.233719713213604 8.301546458703355 2.9169549244951862 0 0 0
913 1 12.704870491202488 7.844355634033252 3.7546669333497533 0 0 0
914 1 13.792740462165986 7.712459676024262 3.64006297492592 0 0 0
920 1 1.666623529128733 8.806638077556629 3.2103172105252065 0 0 0
921 1 2.4237162957451748 9.567821098754761 3.4306136295572585 0 0 0
567 1 3.2980130630475695 9.454440426248114 2.7705569937089125 0 0 0
923 1 2.7809554912199728 8.595738716970967 3.1563587215931674 0 0 0
924 1 3.8040913354416275 8.817227284697932 3.501907581227925 0 0 0
926 1 4.893580008022896 8.602769420888274 3.410254530973645 0 0 0
927 1 4.551419644425815 9.586426090946956 3.721028616865148 0 0 0
929 1 5.994027573454431 8.419686528842265 3.305057831548687 0 0 0
928 1 5.636978030027375 9.397883859172312 3.6253508023213286 0 0 0
930 1 6.711918394335163 9.219325079692954 3.5274413582675326 0 0 0
932 1 7.803611980959647 9.04219520715647 3.4267498339922855 0 0 0
933 1 8.361591428173787 8.405992418683002 4.136227348983706 0 0 0
934 1 8.89952711393503 8.87318792665164 3.3144490939544333 0 0 0
935 1 9.603475738868847 9.688426691466498 3.493033746107244 0 0 0
936 1 9.994176755838554 8.698069467624123 3.2044836923875377 0 0 0
938 1 11.069022888028313 8.574214950880807 3.1426178113018692 0 0 0
937 1 10.675878415081407 9.54545784198842 3.4056780569883953 0 0 0
1303 1 11.224644037891432 8.944540292144165 4.153107255453428 0 0 0
939 1 12.150032515800234 8.449662045433978 3.029058634827145 0 0 0
941 1 12.304093566472027 8.81566490913598 4.051156185692493 0 0 0
940 1 11.76067869717176 9.412510620048772 3.3151442805843407 0 0 0
944 1 13.384585904425169 8.680276672452383 3.955667623063577 0 0 0
943 1 12.83422621553703 9.26799921559877 3.221713247781558 0 0 0
945 1 13.935834378802479 9.117424825730197 3.090588593740708 0 0 0
1308 1 14.085704443765303 9.49842585533264 4.1229957871176675 0 0 0
946 1 14.496906981990184 8.517761475523185 3.833904881846588 0 0 0
951 1 1.999166917875769 10.552197027684773 3.6163144021243046 0 0 0
954 1 2.9390906766567593 10.43281376798484 3.04410914855582 0 0 0
952 1 4.034090462326045 10.251113583208388 2.995685133298522 0 0 0
953 1 3.4584256016858443 9.810052045306376 3.793830838350567 0 0 0
955 1 3.087036591456777 10.78019040773217 4.07443856818247 0 0 0
606 1 5.108289711080099 10.058450001524722 2.911916302268184 0 0 0
956 1 4.189890827438475 10.574186974494047 4.030446643444311 0 0 0
957 1 5.271985372485686 10.38578980236838 3.934536886410656 0 0 0
958 1 4.747576646955634 11.03345896361237 3.2086674686155945 0 0 0
609 1 6.181827623270077 9.858910440135674 2.7949309894004317 0 0 0
961 1 6.911402911807995 10.649676596053633 2.9990947031962287 0 0 0
959 1 6.341772868281948 10.19850011158757 3.8286782180328394 0 0 0
960 1 5.833478011012572 10.843483824446142 3.1150806659814068 0 0 0
994 1 5.972737804000388 11.190540817461843 4.134796191366221 0 0 0
964 1 7.985526200662663 10.4951063149172 2.9042630950788615 0 0 0
963 1 7.426229170811848 10.01743021137571 3.7396484499205336 0 0 0
962 1 7.059377534342309 11.02205437940002 4.029200382079794 0 0 0
965 1 8.124358263531784 10.845591843666611 3.9222899451187287 0 0 0
967 1 9.060866980348745 10.324562314292816 2.7741530091336806 0 0 0
966 1 8.52392785815169 9.859027539285997 3.619548942557935 0 0 0
968 1 9.203813450715382 10.677960378839652 3.801497584289504 0 0 0
1002 1 9.739091953803234 11.14631743173177 2.9750571241898958 0 0 0
970 1 10.276498327732286 10.534960969678625 3.7049676966194736 0 0 0
971 1 10.817099615631198 11.021154528354979 2.8658631954362184 0 0 0
972 1 11.356517387155256 10.389726453792493 3.6133586893030274 0 0 0
974 1 12.45544804484581 10.259533052659272 3.4978791567100127 0 0 0
973 1 11.892884535657023 10.849393274915524 2.772371773028438 0 0 0
976 1 13.53235703756848 10.10745321285596 3.3762906854745505 0 0 0
1011 1 13.144021472353613 11.101919897985017 3.6709174042523847 0 0 0
986 1 2.5876070618372093 11.43874642965433 3.338373864689011 0 0 0
988 1 3.675576324574264 11.222373260864922 3.297107450541912 0 0 0
989 1 3.323490209245691 12.232729128574263 3.552451051331747 0 0 0
991 1 4.398788804350269 12.031812048823864 3.508855776049821 0 0 0
992 1 5.463936828311553 11.836078708675352 3.429674351687459 0 0 0
995 1 6.526855303559221 11.642713511294952 3.303728347870525 0 0 0
997 1 7.604115679907786 11.492004947463164 3.1999004645602365 0 0 0
998 1 7.223357759062864 12.472142935284872 3.498443310204106 0 0 0
999 1 8.301387502366083 12.301370371091261 3.3770495121516517 0 0 0
1000 1 8.671949511018738 11.314211271339072 3.0829395340577492 0 0 0
1001 1 9.359553367421128 12.143736447318577 3.2632825699600287 0 0 0
1360 1 8.83058034870181 11.667454959849149 4.096348335394023 0 0 0
1003 1 10.434839093239397 11.990465069046587 3.170549669277327 0 0 0
1005 1 9.896986520740114 11.515524188945834 4.001581107089228 0 0 0
1004 1 10.974445181544331 11.369323586386304 3.8859052918902015 0 0 0
1009 1 11.144800959124085 12.444634643322289 3.8785663550337737 0 0 0
1006 1 11.510935458270312 11.850055912036305 3.0452931248435 0 0 0
1007 1 12.058698752461067 11.23449865349015 3.779340013856891 0 0 0
1010 1 12.589543886076054 11.699444692712278 2.90975531176128 0 0 0
1008 1 12.224128164484277 12.304717653480036 3.7433341869816315 0 0 0
1023 1 4.021875532553396 13.048213806544602 3.7834086751278044 0 0 0
1025 1 5.099128827990118 12.823305570188001 3.698487134085573 0 0 0
1026 1 5.2032400706530515 13.897190712668781 3.669597400887452 0 0 0
1028 1 5.644587357949311 13.314884381404873 2.8373120634773468 0 0 0
996 1 6.163617657974247 12.664358800395151 3.5958450926858676 0 0 0
1029 1 6.302264038995149 13.754107758423698 3.5876109676057744 0 0 0
1030 1 7.393143018041846 13.564873612477875 3.4920766834705668 0 0 0
1031 1 8.47010857451433 13.39867667927527 3.374866357266235 0 0 0
1032 1 9.552316657582093 13.218129986537647 3.249716342753547 0 0 0
1393 1 8.99728299630522 12.761741657957765 4.0806141349671705 0 0 0
1033 1 10.075006168789328 12.605897467042393 3.9782494361884013 0 0 0
1034 1 10.669681322102946 13.076669614965677 3.1184523848765022 0 0 0
1398 1 10.728560795120346 13.458419362151071 4.150494988971119 0 0 0
1402 1 11.813513360672358 13.28759706849755 4.00888628863414 0 0 0
1058 1 7.009522474203603 14.577693488984838 3.7583083742675782 0 0 0
1060 1 8.09336841957521 14.401964598516116 3.648772598749322 0 0 0
1062 1 9.170330646514053 14.227602178770786 3.5223466006325435 0 0 0
1124 1 3.932572572529612 1.376486014937507 4.746161793224145 0 0 0
1093 1 5.011032979642232 1.2077214464489034 4.623438137622378 0 0 0
1094 1 4.442878741317075 0.7080505063760345 5.479572231845329 0 0 0