LAMMPS data file via write_data, version 7 Feb 2024, timestep = 0, units = lj

2324 atoms
1 atom types

0 15.424502472009342 xlo xhi
0 15.424502472009342 ylo yhi
0 15.424502472009342 zlo zhi

Masses

1 1

Pair Coeffs # lj/cut

1 1 1

Atoms # atomic

1 1 7.393305447437938 11.486904207283091 14.066151391028303 0 -1 -1
2 1 6.334206803265423 11.59873410712763 14.147733932661392 0 -1 0
3 1 10.052514994084314 10.665205140397127 14.638923174789074 0 0 0
4 1 8.97260697045486 10.77473378097161 14.71346868987732 0 0 -1
5 1 9.386492054685155 9.804252437660407 14.442584938723718 -1 0 0
6 1 7.910623885639136 10.880519888771707 14.794145069679985 1 -1 -1
7 1 7.246641212322269 10.029829508450854 14.596980125000034 -1 0 0
8 1 8.316392419585686 9.922168696804583 14.509595455065904 0 0 -1
9 1 6.8436985873193406 10.98126990417608 14.883396373554891 0 -1 -1
10 1 6.175314950110812 10.13586927891971 14.669687919106952 0 0 -1
11 1 4.144932202380653 9.929718260757824 14.39439591353811 1 -1 0
12 1 11.518136693238073 9.579795958217455 14.28824789176028 0 0 -1
13 1 10.457859203743828 9.69452583645834 14.358401081591484 -1 0 0
14 1 9.908196299648134 9.194607198430752 15.164079407717509 -1 0 0
15 1 10.865551949532657 8.729203702866988 14.067381978763487 0 0 -1
16 1 9.794777357643255 8.84714075555299 14.144633542614317 0 -1 -1
17 1 8.728197229925456 8.972631596830466 14.230978553232239 0 0 -1
18 1 8.83390852209191 9.31274744170233 15.243037282296378 0 0 0
19 1 7.665164810297841 9.062241151845564 14.301178419702715 0 0 0
20 1 7.755028289383559 9.43612027406693 15.32961727813242 0 0 0
21 1 7.104342469662143 8.567192585858182 15.101905528852763 0 0 0
22 1 8.184429552808336 8.458422974765313 15.027905209717154 0 0 -1
23 1 6.5888041796862495 9.176737406113194 14.382345148742903 -1 0 0
24 1 5.743168898066618 9.18066222762612 15.040349918171193 0 0 0
25 1 6.694229636822759 9.52373062881773 15.404014789219632 0 0 -1
26 1 5.21274102461875 9.809163436655892 14.313139865221325 0 0 -1
27 1 4.553768974339128 8.943231822933075 14.069886323442796 0 1 0
28 1 3.478353022046416 9.072425304340863 14.15663937389482 1 0 0
29 1 11.786793410646027 7.148088351645435 14.538196799603167 0 1 0
30 1 10.31411005654458 8.22455730285425 14.896401459337445 0 0 0
31 1 10.720395380227245 7.24961200480855 14.60801218639387 -1 -1 0
32 1 9.250633026791396 8.340230049094517 14.95190275378835 0 0 -1
33 1 8.597640293076905 7.497180862033582 14.7391482960015 0 0 -1
34 1 9.670191712615946 7.387603380169431 14.672476020818292 1 0 -1
35 1 7.5125555368571595 7.616857606308939 14.818829093477326 0 0 0
36 1 7.002086452357565 8.239704527949051 14.07897119330956 1 0 -1
37 1 6.149422838595867 8.218596113883311 14.739665982794214 1 0 -1
38 1 6.570031924332741 7.269545846077912 14.433070997366846 0 1 0
39 1 5.070480705249271 8.323031851937365 14.782045361131518 0 0 0
40 1 5.489604655335044 7.378546793515961 14.481481912862499 0 0 0
41 1 4.419681137956288 7.4510111051909504 14.5492406895803 1 0 -1
42 1 11.150107836955321 6.2995092877558765 14.319045874413968 0 0 0
43 1 10.083413604789667 6.410069336914349 14.387303047500646 0 0 0
44 1 9.025629351713349 6.556597476488965 14.455523208680365 0 0 -1
45 1 9.548401905091103 5.923097287213066 15.196542213931892 0 0 0
46 1 8.479692687140094 6.044288424936376 15.240057701841772 0 0 -1
47 1 8.378430589637698 5.7242613406757155 14.232257891322204 0 1 0
48 1 7.942266948099842 6.678669823364252 14.528355785780594 1 -1 0
49 1 7.07925545962865 6.638033932259199 15.154152641312168 0 1 0
50 1 7.512539658784283 5.696673615468137 14.793999932661363 0 1 -1
51 1 6.997903453948816 6.316005113041272 14.093861295936804 0 0 0
52 1 6.026794884469491 6.724228502485262 15.194554203176883 1 0 -1
53 1 6.440238063799375 5.769075645421293 14.853124631872335 0 0 -1
54 1 5.928273808627846 6.408236486514538 14.153414990530452 0 0 -1
55 1 5.388024224349988 5.871732215333659 14.930129213065264 0 0 -1
56 1 4.855823157026698 6.509796518540559 14.210139514314275 0 0 0
57 1 3.786320168738378 6.594006937607392 14.300486924356472 1 0 0
58 1 11.542432090617426 5.322205957406796 14.042189200056614 -1 0 -1
59 1 10.477591626771526 5.427844143929916 14.108035728889007 0 0 -1
60 1 10.34346177038688 4.352414214034353 14.132388297327605 -1 1 0
61 1 9.429867091576137 5.564674567881474 14.183900210664353 0 0 -1
62 1 9.235184327450927 4.4794461015545535 14.195951351914465 -1 0 0
63 1 8.913104150081923 5.0870498909838755 14.979327832757708 -1 1 -1
64 1 8.070486665387131 4.702027446704752 14.416193330597062 0 0 -1
65 1 6.962708271041753 4.823623291600292 14.503902699580891 1 0 -1
66 1 5.854089950701624 4.911211167516125 14.578035679260946 1 0 0
67 1 8.48886967653369 3.7335204045883024 14.041845304676412 0 0 0
68 1 7.3902758636783386 3.869303190428116 14.164809029054416 1 0 -1
69 1 6.301661590867019 3.9752915145094057 14.257848264076895 1 0 0
70 1 5.20325855059408 4.0533745668924475 14.329019375387583 1 0 0
71 1 9.65770996571913 12.716493419613316 13.373559377771862 0 -1 0
72 1 8.598474088463002 12.821157388971713 13.456590537192726 0 0 0
73 1 9.153194939396297 13.328062541794887 12.644548332961037 0 -1 0
74 1 7.522829572895499 12.94478427906228 13.536897108311862 1 0 0
75 1 8.08487141570707 13.443581197947994 12.716869125804136 0 0 0
76 1 7.02682202874879 13.559397721748157 12.807809444357286 0 -1 0
77 1 6.374904316782639 3.0893497660716287 1.3583322453335056 0 0 1
78 1 7.45965692306882 3.01696598031252 1.2635148408206731 0 1 0
79 1 6.354207841565662 12.717170254520335 12.62009339398949 0 0 0
80 1 5.29499791406951 12.844623562736906 12.69426208293567 0 0 0
81 1 12.212197925018279 11.542574498235671 12.974165574901017 0 0 -1
82 1 11.145926853660114 11.635026563976346 13.019798499749612 0 1 0
83 1 10.079746672310577 11.765375877929232 13.083539931830924 0 0 0
84 1 8.452919966003487 11.37086711110126 13.990580031946457 0 0 -1
85 1 9.00380483629763 11.865908117851596 13.164832327788714 0 -1 0
86 1 9.532381481998675 11.266969506857334 13.910838829808357 0 -1 0
87 1 7.933537294570176 11.993173941480922 13.256678705134108 0 0 0
88 1 6.859613862249072 12.107849403288464 13.326694930523542 0 -1 -1
89 1 5.801601834277681 12.214992051083426 13.429498188207884 0 0 0
90 1 6.209368562944978 11.260474552848969 13.128505298174767 0 0 -1
91 1 4.740631837185067 12.333099450203413 13.515169897209214 0 -1 -1
92 1 5.139722110092328 11.371287658205926 13.227125296635586 1 0 -1
93 1 4.277798629990007 11.40640974267335 13.8870250026013 0 0 0
94 1 3.7698506768379594 12.014705490379393 13.152259329336221 0 0 0
95 1 12.588078430320966 10.58898520450831 12.695374535060703 -1 -1 0
96 1 11.664391496605141 11.045166059601373 13.771562707623383 -1 0 0
97 1 12.048128527595953 10.083105291094812 13.489842977873234 0 0 -1
98 1 11.532151749725497 10.680314040597548 12.743287813663484 0 -1 0
99 1 10.589733007197761 11.151953008018626 13.826098424423606 0 0 0
100 1 10.993088145559486 10.184027386003153 13.551717753158984 0 0 -1
101 1 10.471847404526578 10.794953325635957 12.814003616830309 0 0 0
102 1 9.931819285294784 10.299793154631644 13.631600718970336 0 0 0
103 1 9.40774836882644 10.90809156472125 12.89703188877258 -1 0 0
104 1 8.86516976403374 10.403133481253034 13.704536347654262 1 -1 0
105 1 8.743018693520028 10.065200667988062 12.674902352661178 0 0 -1
106 1 8.339622358473623 11.031246859631594 12.97272062560283 0 0 -1
107 1 5.377388597946115 4.688575903513867 0.978271844293299 0 0 0
108 1 7.281732529037278 11.152720775306564 13.053738989489725 0 0 -1
109 1 6.432652642678367 4.612613284054312 0.912783874761439 0 0 1
110 1 7.797806825759175 10.524365451118138 13.784345694061466 -1 1 -1
111 1 7.671841813221739 10.18738508046234 12.756531903110297 0 0 0
112 1 5.996752169180842 5.560726579285029 1.2431544040866196 0 1 1
113 1 7.063097155440294 5.463923205872165 1.1820745237278536 0 0 0
114 1 7.489058097957702 4.525588783390747 0.8433131245675547 0 -1 1
115 1 8.118642488331682 5.397297324573587 1.1198356612475968 0 0 1
116 1 6.722337936409314 10.636132969202162 13.857636595396002 0 0 -1
117 1 8.531805040615005 4.4508120955269685 0.7478950360973884 -1 0 0
118 1 6.601619202009029 10.31695669938599 12.84728161658385 0 0 0
119 1 9.003915627728674 5.404770608332946 0.567406239870671 -1 0 0
120 1 9.556984958349668 4.779113844002048 1.2993917897803933 0 0 0
121 1 5.644493610950389 10.760048652450076 13.946871601184066 0 0 -1
122 1 10.07659234511278 5.312267067783387 0.4838227562123237 0 0 1
123 1 5.535800280234044 10.422469362327329 12.915285303351725 1 0 -1
124 1 10.606792800274684 4.685070507204668 1.2416436964555722 0 0 1
125 1 4.678537090749772 10.427087164517424 13.573248968417797 0 0 -1
126 1 4.160127161257316 11.058239001709603 12.853500944349769 0 0 0
127 1 3.0874020285883588 11.180002464714496 12.92583162130515 0 0 0
128 1 3.61493258750706 10.56120424169439 13.656964125299037 0 0 0
129 1 3.49031536936846 10.209576455376327 12.619516034524466 0 0 0
130 1 2.432920461215452 10.345560603696706 12.708076121402506 1 0 0
131 1 11.91128310200637 8.617271882527167 14.016646100410453 0 0 -1
132 1 12.456836489462464 9.1293690733345 13.200939606514384 0 0 0
133 1 11.393208783779869 9.221545032225299 13.274693982224024 0 -1 0
134 1 10.344953298558016 9.343125416672777 13.332143699495372 -1 0 0
135 1 9.274328055325574 9.452298113977912 13.405619958504841 0 0 0
136 1 8.613299499667066 8.61812290954263 13.205451937305998 0 0 -1
137 1 9.674804860936431 8.500272820542985 13.130076737134349 1 -1 0
138 1 8.195595911953841 9.572825403610638 13.488769819749361 0 -1 -1
139 1 7.541273977359913 8.739108007761024 13.273105174062744 0 0 0
140 1 7.131740146113165 9.693275253135205 13.57068352639656 0 -1 -1
141 1 3.888472347176507 5.659289529190076 1.336638547277453 0 0 0
142 1 6.050018831082532 9.798179916671904 13.654461342172478 0 -1 1
143 1 4.938901890875098 5.642353932585149 1.309606823107899 0 1 0
144 1 4.401886980023074 6.2999558393175565 0.6137253422221919 1 0 -1
145 1 5.465520201405219 6.180916522930093 0.538237953039249 0 1 0
146 1 6.52948716516145 6.099708034320946 0.47711106039978596 -1 0 1
147 1 7.609762966210652 6.02452640038277 0.41830800288376907 0 0 0
148 1 7.185442153478313 6.970252968479687 0.753866366052905 -1 0 0
149 1 8.031155603069932 6.9960200715777745 0.12148258597628653 1 0 0
150 1 9.641834917448161 6.2602104953742215 0.7843758154157576 0 -1 1
151 1 8.565789632845775 6.367486346994675 0.845640817077131 -1 0 1
152 1 9.109734609099633 6.885468253083535 0.0505644394818089 0 0 1
153 1 10.717146319359667 6.155349376199019 0.7132312798475874 0 0 1
154 1 6.4646902555612975 8.844995358452932 13.370418086247266 0 0 -1
155 1 5.620363701311141 8.848569610094383 14.02038925940807 1 0 0
156 1 11.371779378851262 7.002045824016296 0.9436485830952713 -1 0 2
157 1 5.956800758767173 9.46735935052068 12.638524354996347 1 0 0
158 1 5.084074844177131 9.47153327067477 13.2826464295175 0 0 -1
159 1 4.427635616768805 8.625312687148705 13.026326220762229 1 0 0
160 1 5.502496629954079 8.515192686950902 12.984011977955397 1 0 -1
161 1 2.947144213650349 9.718807951374977 13.433076377278365 0 0 0
162 1 4.007742426047414 9.581032825426739 13.35863029335353 0 0 0
163 1 3.361352600951701 8.734444314102289 13.119574923646894 0 0 0
164 1 2.3020641196651592 8.866285967952079 13.212539237205073 0 0 0
165 1 12.855589212237758 8.15398607526721 12.932556356526256 0 -1 0
166 1 13.269459749642605 7.190885833604224 12.657994834750927 0 0 0
167 1 12.327626182671292 7.640036698380591 13.721584526310645 1 0 0
168 1 11.80375128905894 8.265701716071344 12.982480638179554 0 0 0
169 1 12.20616570107671 7.307252029646326 12.710565686155034 0 0 0
170 1 3.996328203011033 7.29227400399871 0.9788286464052984 1 0 0
171 1 11.266841702736286 7.764476896245475 13.79571773681276 0 0 -1
172 1 11.140937649660914 7.410137798241425 12.789364077754795 0 0 0
173 1 3.5907501783153575 8.274085637067227 1.2872867053874242 0 0 0
174 1 5.053208087975579 7.15630016581971 0.8739778675309546 1 0 0
175 1 4.648845499672201 8.140926110661583 1.1989643760129116 0 -1 0
176 1 10.74637272850886 8.38062922204899 13.052885997962555 -1 0 0
177 1 5.590883144820801 7.692754098379287 0.08490219845971027 0 0 0
178 1 6.120388594763838 7.047082676480386 0.8084050368807669 1 0 0
179 1 5.717249477035313 8.024184057705396 1.1065861290655947 0 0 1
180 1 6.788521597362254 7.92696183362909 1.0840331847584708 0 -1 0
181 1 6.667656901598255 7.599296745462408 0.038775076423194874 0 0 0
182 1 8.155724657780407 7.32282886040579 1.129153915685672 0 0 0
183 1 7.632044720207094 7.951883027729952 0.41402191712016906 0 -1 1
184 1 9.229470177149677 7.2191147632209525 1.074247097931853 -1 -1 1
185 1 8.700314872187297 7.854640640757166 0.3306122946350884 0 0 1
186 1 9.756606348361473 7.7252765766276665 0.2712250007546669 0 0 0
187 1 8.794261743186516 8.194003083113628 1.346909800608419 -1 0 1
188 1 9.87361166727303 8.079425312889343 1.3097830125365653 1 0 1
189 1 10.288890407938391 7.124827705270897 1.0166228194853386 -1 0 0
190 1 10.209894543019125 7.881312188801808 13.875656999615822 -1 0 -1
191 1 10.940299837756609 7.97329317750726 1.2065733381506096 0 0 1
192 1 10.084248019033133 7.532903264486707 12.841768777440103 0 -1 0
193 1 12.002525709811101 7.864485730120312 1.140948385666647 0 1 0
194 1 9.138403721222533 8.010613943181056 13.93813200569034 0 0 0
195 1 9.027555627125514 7.662065005100603 12.900327234798903 0 0 -1
196 1 8.490207722869494 7.167331148886627 13.705605450684752 0 0 -1
197 1 9.551412039049753 7.050528070568872 13.650234308434447 -1 0 -1
198 1 8.082783252322741 8.118413802978795 14.003547449548764 -1 -1 0
199 1 7.40947627912309 7.288888086902148 13.795218306180537 0 0 0
200 1 7.952172812399116 7.786037201351195 12.993568857823266 0 0 0
201 1 6.884711332084128 7.908123844208093 13.070004183752616 -1 0 0
202 1 6.033403879778181 7.887508288996175 13.698612481664481 0 0 0
203 1 5.923068344811741 7.555782163631243 12.650454816912458 0 0 0
204 1 4.956947469871137 7.992079308861058 13.753095246382177 0 0 0
205 1 4.319073363547127 7.139309796642266 13.503922037726149 0 0 -1
206 1 4.846551465761559 7.660857441659369 12.706520017875638 1 1 -1
207 1 5.392540514102687 7.037588147939728 13.438523995597906 0 0 0
208 1 3.8925791410285786 8.110731906491882 13.82659897664305 1 0 0
209 1 5.191481329703146 8.660317502919971 0.3957203439208349 0 0 0
210 1 4.786767420110406 9.630463748166369 0.7290373633188749 1 1 0
211 1 6.265401556762021 8.5712100882095 0.3582733860943591 0 0 0
212 1 5.84808831462648 9.506011913334717 0.6451225554365194 0 0 0
213 1 6.371586620526268 8.879572544122302 1.4016584819827984 0 1 1
214 1 7.2155470803801975 8.920897598472918 0.7099538048834084 0 0 0
215 1 8.281868772360086 8.808347041281053 0.6239042271816369 0 1 1
216 1 7.876247642718785 9.779231874276856 0.929118581578153 0 0 1
217 1 9.34449005451528 8.691382895273264 0.5522249070774486 0 -1 1
218 1 8.936131265092135 9.662760890953011 0.8464455288776132 -1 0 1
219 1 10.408422144727872 8.579838443426125 0.4915263987748417 0 0 1
220 1 10.002888685307878 9.547042157818389 0.7537129236015307 0 0 1
221 1 11.074389656302683 9.433217559909629 0.6977446574150357 0 -1 1
222 1 3.25033147902587 7.2452523939552895 13.602069259038315 0 0 -1
223 1 3.7800221740112403 7.760130151526666 12.807521376763376 0 0 -1
224 1 2.821377683206796 8.240490709501973 13.952390896586017 1 0 -1
225 1 2.7148478655751336 7.885763987515895 12.897219944178822 1 0 0
226 1 1.667247495543034 7.7753067210363165 12.761258606330752 0 0 -1
227 1 13.148124843574747 5.7070306373603445 13.144320524709011 0 0 0
228 1 12.735953997529089 6.675138737093421 13.43496410845674 0 0 0
229 1 11.677796364781784 6.797106015002439 13.504675131348796 0 0 -1
230 1 12.088199281960176 5.822693902711703 13.223652409763895 0 -1 0
231 1 10.608441298688017 6.909815364996549 13.574948407066355 0 -1 -1
232 1 11.017547546519502 5.94010251751587 13.30453419977795 0 0 0
233 1 9.95347330646134 6.060156260882116 13.36757112369253 0 1 0
234 1 8.906365971265345 6.195985612123377 13.431419489900994 0 0 -1
235 1 9.409764086925273 6.679708622825327 12.620324452367969 0 0 0
236 1 7.304656889837766 6.974807810621123 12.784564352162407 -1 0 -1
237 1 8.359935995957326 6.827537149952023 12.692050832030512 0 0 0
238 1 7.841501880743073 6.346016526492927 13.516307476294765 0 1 -1
239 1 5.450532700926413 10.483829556334435 0.9555148494463268 0 0 0
240 1 8.179250766650627 5.736052643503263 12.762181545050057 -1 -1 0
241 1 6.797996192510008 9.875795190887994 1.0001173859107007 0 0 1
242 1 6.403159437985292 10.84930021445322 1.2996927584457818 0 0 1
243 1 6.990048296945094 5.951163790615461 12.967228633987352 0 1 0
244 1 7.461954658037777 10.747665232335349 1.2142114422979602 0 0 0
245 1 7.34676321647505 10.383145287015768 0.19546541028433473 0 -1 1
246 1 6.44797928537971 6.932829381201272 13.371259853564847 0 0 0
247 1 8.536616280772312 10.622185889341745 1.1417211730977228 0 0 1
248 1 9.606877471673563 10.522577704293132 1.046695467061866 0 -1 0
249 1 5.8816122067317504 6.07810884562898 13.088746235584775 1 -1 -1
250 1 4.790996916471122 6.18131002267731 13.179334176609107 0 0 -1
251 1 4.236604604079644 5.6323970880394905 13.96085548018536 0 0 0
252 1 10.672840611530743 10.393776853641983 0.9781920907575774 -1 0 1
253 1 3.7037934251967006 6.274510470399372 13.254493317798676 0 0 0
254 1 2.6373163921242297 6.271680009959448 13.252695676301004 1 0 0
255 1 11.961520858632168 4.745532730580803 13.22606219117894 0 0 -1
256 1 10.892254969721556 4.844105382516475 13.311921017442867 0 0 -1
257 1 9.798177137601215 4.9509111452691075 13.385993312278305 0 0 -1
258 1 8.721670222247859 5.098823988545475 13.474122085935049 1 0 0
259 1 9.270369037362178 5.567955806376982 12.631462588676289 0 1 0
260 1 7.537212071754836 5.318332137904614 13.69168699883411 0 -1 0
261 1 7.93563098402159 4.358975111525505 13.35210984448716 0 1 0
262 1 7.405819372584075 4.980100631599962 12.633386600550505 0 0 0
263 1 6.427083986929043 5.453824019135218 13.792989026192169 0 0 0
264 1 5.755933570840516 4.6039458761662555 13.548264027484235 1 0 0
265 1 6.850356244641099 4.493479212052793 13.450318753793283 -1 0 1
266 1 6.306617085880253 5.11753952660841 12.743868980269989 1 0 -1
267 1 5.319492640155007 5.556077765759367 13.881841666960984 0 1 0
268 1 4.686311761682808 4.693562960643101 13.616803036854108 0 0 0
269 1 5.239236208096994 5.228802571424582 12.834847391194455 1 0 0
270 1 4.1546586159534575 5.322875177515936 12.922166126289577 1 0 0
271 1 3.606721810334945 4.745915707643657 13.68744518789623 0 0 -1
272 1 3.086713071930799 5.355456362504863 12.963884486700232 -1 0 0
273 1 5.058113281432499 11.451150922683471 1.259003778983266 1 0 1
274 1 2.9540856413758005 4.28514116502162 12.893967295760687 0 0 1
275 1 4.022597074713674 4.236152787540717 12.864096399778468 0 0 -1
276 1 11.327696576487543 3.8822414850278864 13.050788607059639 -1 1 -1
277 1 10.229478989944262 3.9781029019490806 13.123294575216573 -1 1 0
278 1 10.811472979583353 2.96452617496338 12.892763424023409 0 0 -1
279 1 9.63329793324015 3.5150568531311364 13.919774101436692 0 0 0
280 1 9.774620622309683 3.0226846573219484 13.006960816098573 0 0 0
281 1 9.082818692853115 4.142401646609342 13.18928998490904 0 0 0
282 1 9.191769756240163 11.47717922937822 1.3404589039279802 0 0 0
283 1 8.74253060757224 3.135167919066384 13.15191632640849 0 1 0
284 1 7.716584506264907 3.2972252326291085 13.294063145203896 1 0 0
285 1 10.271319519114433 11.379704318922084 1.2587704616379076 0 0 1
286 1 6.656308432105707 3.4049387824812776 13.412044717269225 0 0 0
287 1 6.151640735954601 4.029964740737464 12.70977082501119 0 0 0
288 1 5.592243461541742 3.5156652685849465 13.492959581461728 0 0 0
289 1 5.082527163688031 4.138878963585069 12.790043215207735 0 0 0
290 1 4.532827470122939 3.600466573057064 13.57117931533723 0 0 -1
291 1 10.190524010332025 2.059754202787001 12.719640778919755 0 1 -1
292 1 9.144694109575065 2.1641308297676103 12.843351625665163 0 1 0
293 1 8.081917805418216 2.290360284733625 12.970802397321513 0 0 -1
294 1 7.036455252186607 2.4288094684562 13.083634920656078 0 0 -1
295 1 5.987695946079301 2.5425926637095784 13.174282256313589 1 0 -1
296 1 7.5657415828072825 14.066382718340734 11.984665753428857 0 -1 -1
297 1 7.044746989421644 14.696721346422544 11.269721031932804 0 0 0
298 1 6.506284224277634 14.181767013408008 12.077187790434254 0 -1 0
299 1 12.227742914583546 12.665347631038564 11.425962940000888 0 -1 1
300 1 10.214022413642688 13.21108331256782 12.57134321146662 0 -1 -1
301 1 11.161442036423663 12.767294337770208 11.488924700360556 -1 0 0
302 1 10.754432409379309 13.715797481939491 11.763782725928593 0 -1 0
303 1 10.087531392246955 12.869551480418798 11.553607338708487 0 -1 0
304 1 8.626216258019552 13.94152327504779 11.911621288930123 0 0 0
305 1 9.69920576517075 13.825900072466334 11.826331195481247 1 -1 0
306 1 9.013046367881651 12.975281654118614 11.638505262253105 -1 0 0
307 1 7.945514580635004 13.102717262723633 11.700543664539657 0 0 0
308 1 6.896160322168657 13.210556380137538 11.802190362510801 0 -1 -1
309 1 5.834864052738796 13.343875683279116 11.890522200210762 1 -1 0
310 1 4.76929997072644 13.468143687595187 11.980547785054382 1 0 0
311 1 11.692261550107762 12.161902759257744 12.228704464107498 0 0 0
312 1 10.625408904600889 12.25257557818798 12.271992958060958 0 0 0
313 1 9.935753386018838 11.410788187789654 12.07074776282639 0 -1 -1
314 1 11.00851721157557 11.30525455760699 11.99726422352346 0 0 0
315 1 10.48137769126237 11.914737172760105 11.269006072397332 0 0 0
316 1 9.557666478365222 12.378159914500742 12.34863626394596 0 0 -1
317 1 9.417494176948637 12.029616757579458 11.347527985721873 -1 -1 0
318 1 8.878685800972836 11.519115455835378 12.153524916825305 0 0 0
319 1 8.487914246527927 12.480239213209858 12.439919003853007 0 0 0
320 1 7.430771297302456 12.592716581999957 12.516831644225627 0 -1 -1
321 1 8.358071520530876 12.139807622564252 11.421690892757802 -1 0 -1
322 1 7.292788289158241 12.254622520992047 11.500069506582538 0 0 -1
323 1 7.812522074715627 11.6364147693192 12.234181346480996 0 -1 0
324 1 6.755847737738832 11.754984622836764 12.314884842944464 0 0 -1
325 1 6.227133581359686 12.377009100762386 11.597232695197727 1 -1 0
326 1 5.6805208202471915 11.863094912831166 12.406623419385067 0 0 0
327 1 6.637249665359112 11.417991113039948 11.29089773168484 -1 0 -1
328 1 5.567827652601171 11.528733660636343 11.393126313051992 0 0 -1
329 1 5.164425454334515 12.494854589136898 11.69449968827559 1 0 -1
330 1 4.615774915460614 11.993740831881388 12.4850862190935 0 0 0
331 1 4.495374875105576 11.644668136205105 11.48285464422332 0 -1 0
332 1 4.098739480335608 12.603519437917386 11.762785917830888 0 0 0
333 1 3.6407169651761846 11.670688012733148 12.13861535330822 0 0 0
334 1 3.124354275736666 12.296478957231706 11.413437454152392 0 -1 0
335 1 2.5678782204852806 11.820290561672602 12.222204473416578 0 0 1
336 1 13.13911245273768 11.097113698151613 11.889964740880083 -1 0 0
337 1 13.531234597446344 10.141498589270117 11.618254955241914 -1 0 0
338 1 12.073201064353754 11.207163338334972 11.956500135708167 -1 -1 -1
339 1 12.473794603265617 10.246203141827081 11.679645899781917 0 0 0
340 1 11.407986483776368 10.330596365563784 11.740782094708713 0 0 -1
341 1 10.355850906137903 10.450185295980813 11.794026432556617 0 0 0
342 1 10.881832723279567 9.824195311859508 12.53811782966921 0 0 0
343 1 9.825229879113987 9.944767747483565 12.594279975711677 -1 0 0
344 1 9.290756815227518 10.559097692384174 11.863419968119059 0 0 0
345 1 8.214827443529243 10.671697226280042 11.946008615112845 -1 0 0
346 1 7.150375488016494 10.797485473746883 12.02827596409825 0 0 0
347 1 7.552536055290544 9.848655282070405 11.73468974871548 0 0 0
348 1 6.082599954996748 10.92135953592614 12.118230615009509 1 -1 0
349 1 6.484360474494797 9.962061488994921 11.829192641200347 0 -1 -1
350 1 4.549942515887557 10.092920260786927 12.547602808296338 0 0 0
351 1 5.016212360866729 11.038561060998543 12.201294522468231 0 0 0
352 1 5.411207482298997 10.083574857538787 11.903577194271657 0 0 0
353 1 2.967561204003153 10.837336508632875 11.900816569740572 0 0 -1
354 1 4.042058430987328 10.707582446223345 11.819880935369287 0 0 0
355 1 3.384612979784539 9.87937040586412 11.582011872092913 0 -1 0
356 1 1.9090966098874267 10.985779875306013 11.985347508930035 0 0 0
357 1 2.324801446404283 9.990827471144827 11.678675264762376 1 0 -1
358 1 13.932090146785486 9.18660235053862 11.33531793264888 0 0 -1
359 1 13.000261455777977 9.616936881441415 12.41071591776379 0 0 0
360 1 13.39821057040697 8.67325911751437 12.137006829798443 0 0 0
361 1 12.873615176661238 9.278883447976181 11.391739970318069 0 0 0
362 1 11.93810949694937 9.722937462542388 12.470739995912567 0 0 -1
363 1 12.330202028115831 8.761679066976292 12.193827581505335 0 0 0
364 1 11.813823190943715 9.380995596485041 11.447021017145047 0 0 -1
365 1 11.268175005556396 8.872340127290379 12.238256700170735 0 0 1
366 1 10.209096569090002 8.984108399076701 12.313930967103671 -1 0 -1
367 1 10.751173808412242 9.480206987401212 11.503497654398739 1 -1 0
368 1 10.092577068324028 8.62382997426835 11.301950844523482 -1 0 -1
369 1 11.153741975585689 8.520488542259717 11.238755081381315 0 1 0
370 1 8.631169380426554 9.712398966075991 11.655146448112257 1 0 -1
371 1 9.697746525576429 9.596913110821733 11.577603396539162 0 0 0
372 1 9.149330358592026 9.097407763564176 12.385364527684349 0 -1 0
373 1 9.04806349268228 8.738516594790937 11.358218312871182 0 0 0
374 1 8.0895714512627 9.231766741813576 12.462292419774524 0 0 0
375 1 7.97240416574002 8.889588065742428 11.433212683535556 0 -1 0
376 1 7.020643569972386 9.360981392686583 12.551320273803952 0 0 -1
377 1 6.905523871155841 9.022046502759457 11.528764010155717 -1 0 0
378 1 5.829629438001153 9.13064749487152 11.625390984734976 0 0 0
379 1 6.361430868461364 8.529418100396521 12.350806798342788 1 0 -1
380 1 4.449496198375049 9.744120604049229 11.515141671410138 0 0 0
381 1 4.972306164696694 9.131859787013564 12.257380546802056 0 0 -1
382 1 3.906910895310735 9.249601499410625 12.307406959662673 1 0 0
383 1 3.8107222261348 8.886109265670964 11.27990699026202 0 0 0
384 1 2.849087166434036 9.35868354294095 12.398076503587095 0 0 0
385 1 2.745229761105914 9.003181405307442 11.358280198956782 0 0 0
386 1 1.7722868330424792 9.49781766029227 12.483721868317632 0 0 0
387 1 1.6653885645830688 9.14417374034914 11.449456049462789 0 0 0
388 1 2.1815122917287546 8.514080494208837 12.183831824746205 1 0 0
389 1 13.796444476007045 7.7115153708907975 11.866376656039714 0 -1 0
390 1 12.752286106681018 7.796996388040999 11.924538249699276 -1 0 -1
391 1 11.67296873079697 7.897597207724701 11.973008725989688 0 0 0
392 1 10.615257037355347 8.017045485491375 12.043158401256004 0 0 0
393 1 9.94556301951127 7.170334356139122 11.835489021211997 0 1 0
394 1 11.008480922952778 7.0546478364265175 11.764024964363921 0 0 0
395 1 9.54942027492692 8.134739897502435 12.100985463157926 -1 0 0
396 1 8.882904168243153 7.2935304957003435 11.890514326179577 0 0 -1
397 1 8.484121134582121 8.26815324410801 12.169109720818634 0 0 0
398 1 7.434233409793906 8.40452857702542 12.2472537000432 0 0 0
399 1 7.829227366928647 7.41840946527831 11.958897577237964 -1 0 0
400 1 7.303533833903079 8.053349790984523 11.234876701848439 -1 0 0
401 1 6.788236897563111 7.599764984600915 12.076976218295767 0 0 -1
402 1 5.923662897698211 7.204614315074292 11.56709997249671 1 0 0
403 1 6.258800785416849 8.208267161657254 11.356092470284535 0 0 -1
404 1 5.400578421748431 8.168450579559302 11.934357374980353 1 0 -1
405 1 4.798353944780029 7.321975996035217 11.663599079515924 0 0 0
406 1 4.3338337992357285 8.273058140974419 12.005291634328607 1 0 -1
407 1 3.2560550030737514 8.380943910327234 12.080457601754645 0 -1 0
408 1 3.725190694567976 7.419170325249102 11.742851946691452 0 0 -1
409 1 2.6509266134219076 7.526366083828204 11.834346474770749 0 0 0
410 1 5.8091544596647795 2.5229664276184645 2.1174819251984043 -1 0 1
411 1 1.5823986791778784 7.465329978111727 11.753236299447853 0 0 0
412 1 6.896466630842516 2.4467969243719696 2.042473759807646 0 -1 1
413 1 1.1493262869453134 8.374209775059668 11.99994334252375 1 0 -1
414 1 7.999903279205172 2.381151190879766 1.9609713053283864 0 0 0
415 1 7.452936075917073 1.8660911375641798 2.7552385179393486 0 1 1
416 1 14.208942483473347 6.755189755628658 11.590582560466393 0 0 0
417 1 8.529118669180988 1.7793947794343576 2.686911488876413 0 0 0
418 1 14.132329117874734 5.654856237063743 11.51453282304218 0 0 1
419 1 13.148877472888588 6.85224732790537 11.629151968486177 0 0 0
420 1 13.686329969394396 6.229920093014748 12.364760315204471 -1 0 0
421 1 13.045961606540574 5.7550715301764495 11.595597450516669 0 0 0
422 1 12.632285190881845 6.330311972507363 12.41240264725155 0 0 0
423 1 12.085811664425085 6.95051037973163 11.683140896011922 -1 0 0
424 1 11.551675888256627 6.437187549574253 12.494469119239177 0 0 0
425 1 11.975155658968921 5.865034692610977 11.681206213435663 0 0 0
426 1 10.474480298000731 6.559869249733671 12.562940742757041 0 1 0
427 1 10.883472139733028 5.967607520406665 11.755520199718093 0 0 1
428 1 9.808987528732443 6.08377091755334 11.82042116565392 0 1 -1
429 1 8.726906941760559 6.196748338718364 11.88927616957954 0 0 0
430 1 7.076082379255673 6.9915562612887205 11.316079977214462 0 0 0
431 1 7.637610103986365 6.357713431858417 12.034781817586888 0 0 0
432 1 6.459525603732826 6.564942216282678 12.260830099328778 0 0 -1
433 1 5.77574065714647 5.742350900410069 12.026386801508398 0 0 0
434 1 6.335356683769365 6.212020987213319 11.216118762469655 0 -1 0
435 1 5.337353765842879 6.694155902898318 12.383893851923752 0 -1 0
436 1 4.697725239221168 5.847119723291881 12.128215317413078 -1 0 0
437 1 3.2196342786644956 3.6083082540034743 2.560809427517805 1 0 0
438 1 3.755964325713557 4.1728777057982755 1.7934652004337146 0 0 0
439 1 5.245756316414547 6.370560435298665 11.328917052462662 0 1 -1
440 1 4.2467668551696205 6.796980347519572 12.45083584046841 0 0 0