LAMMPS data file via write_data, version 7 Feb 2024, timestep = 25000, units = lj

4631 atoms
1 atom types

-90.00732702860027 116.85699548053839 xlo xhi
-90.21794045736189 111.33834295285523 ylo yhi
-94.74771216213082 104.38468054671822 zlo zhi

Masses

1 1

Pair Coeffs # lj/cut

1 1 1

Atoms # atomic

1738 1 24.99122220989405 -24.169068005184577 -94.74592435506064 0 0 0
3528 1 54.38150843514781 -38.091334333059336 -87.39619401041544 0 0 0
532 1 -24.441433162095343 20.20209887198707 -77.5011152062626 0 0 0
273 1 9.575822045308287 44.17197146714365 -73.5694559356567 0 0 0
1343 1 -7.848749011314659 12.63799350241159 -71.50711315609786 0 0 0
1833 1 -17.28239603155669 25.873803657458406 -74.74706780877152 0 0 0
221 1 27.841692079022277 20.96162826848095 -68.6160820342145 0 0 0
895 1 -27.13437857312685 -18.749367877797365 -71.07844541060904 0 0 0
563 1 -3.395072583541593 -7.257020951508228 -67.5614625884109 0 0 0
437 1 -30.774662048630464 2.536438755337951 -61.47182805358062 0 0 0
1812 1 5.752014794749416 4.109304726222444 -72.33233836526932 0 0 0
381 1 6.210747254155203 52.65526104949577 -68.81567034831588 0 0 0
580 1 15.692456322865743 4.884956864457734 -69.5169971077352 0 0 0
208 1 52.78413386512649 -14.552623990326115 -63.577786734143835 0 0 0
473 1 -4.886613463202064 24.829576135838675 -59.04061421956376 0 0 0
1684 1 10.497266829476953 27.54873357845846 -66.97140642231462 0 0 0
249 1 -5.555961267095414 -5.529857916176076 -58.66311212513463 0 0 0
363 1 3.864957561260006 9.602190957902863 -62.00836639267599 0 0 0
519 1 87.50381666521785 12.362205697201125 -64.34632457807855 0 0 0
51 1 44.76637868272499 23.45963793595852 -65.02825353096631 0 0 0
295 1 -7.910103033878336 20.145481873352082 -65.66198940729308 0 0 0
56 1 19.341804516920728 -35.42029828934685 -62.013615020530985 0 0 0
287 1 -20.413910925091518 -27.192179511715615 -64.84512883929192 0 0 0
102 1 71.1095653410665 -11.15759083058203 -63.55981110117256 0 0 0
1720 1 -17.718733890672734 18.110472973479027 -62.56671705546746 0 0 0
1501 1 36.42473774273253 51.96962253245768 -57.80477677591755 0 0 0
389 1 -32.444960861251246 19.746619076924492 -56.14563939586141 0 0 0
1278 1 37.54204883052285 51.46516877714802 -59.776321566706045 0 0 0
2355 1 25.40630244526135 -17.673854470032236 -63.64629762596411 0 0 0
665 1 8.564786086398808 1.8464357011972425 -58.447641294637265 0 0 0
161 1 -38.3614097083601 14.062083174015198 -51.645376525120994 0 0 0
252 1 46.401570141490105 15.289010702382818 -52.2419301768959 0 0 0
909 1 30.957515617262434 23.498083633965518 -55.10650151910854 0 0 0
953 1 54.339746246178706 30.597681421180077 -54.18702974010091 0 0 0
1175 1 18.882979210317657 60.86911417577012 -56.8374571081495 0 0 0
586 1 40.52589933804779 -24.089234499869363 -56.636603129577566 0 0 0
133 1 -23.372999283524386 -13.23315972517532 -59.487885646853634 0 0 0
583 1 28.850463391906867 1.3118130923772915 -55.2450115170714 0 0 0
1421 1 -7.134866538646038 0.49262149218865225 -57.03810671095761 0 0 0
131 1 -9.662165880221135 -27.622937053841756 -59.32326744962003 0 0 0
692 1 -5.1991978604141975 -17.38670668424424 -55.75115959836862 0 0 0
540 1 -33.487972617403706 6.516831883843949 -50.784764589981314 0 0 0
525 1 53.02533977333768 -0.22478499300110455 -50.85705188681647 0 0 0
23 1 27.054267014492066 -22.371464724850348 -53.537883276738526 0 0 0
1322 1 11.949436756239178 -6.68720458724951 -50.59567984785056 0 0 0
1076 1 116.8552076734682 15.968456913428112 -49.98607549032998 0 0 0
2181 1 24.773111793634083 26.445207928187035 -56.181343657663376 0 0 0
233 1 16.354219674851038 30.196676263063665 -53.32555688154828 0 0 0
433 1 34.33176670133201 11.088521964662988 -53.683485907949205 0 0 0
3978 1 -33.53109390006662 24.576153015025284 -49.18179694648976 0 0 0
222 1 0.23344174387062475 67.63169099683283 -50.21691197717996 0 0 0
4414 1 24.860342506862366 -38.65971369463051 -52.42329457716414 0 0 0
2951 1 39.3846926488369 31.386232260638085 -43.623635149168905 0 0 0
1644 1 16.869132993612165 66.73568886556984 -50.79142695439355 0 0 0
3585 1 23.771865990470104 -38.37674212165342 -52.579057322950014 0 0 0
3091 1 -42.72003184056856 -8.106178661734024 -52.920392030979485 0 0 0
248 1 31.040970337186238 -2.5222714698552213 -48.490084105259456 0 0 0
2249 1 23.523047080855303 4.8386424828695045 -47.59968711177797 0 0 0
1311 1 -21.368291391250008 41.9088027487861 -46.70208057056928 0 0 0
351 1 -3.949186734420735 48.444582305965646 -49.19533478488417 0 0 0
3492 1 34.774400299678426 45.44663655771606 -47.67898146786581 0 0 0
1871 1 30.167725466702016 -41.71293492979681 -45.205513526966435 0 0 0
891 1 -5.309184779159775 -6.728499258576981 -43.706710328486096 0 0 0
6 1 -3.5766417878665817 -0.9883672084320632 -44.45844302246882 0 0 0
677 1 8.237449952671053 -0.9110195859937823 -51.07398131463477 0 0 0
1286 1 40.0393594381999 4.499642965733999 -42.20649992187936 0 0 0
1019 1 -27.531858436925816 8.732737728932205 -46.9920133797905 0 0 0
1107 1 -58.24077305401726 10.956503029362748 -46.36224804522523 0 0 0
740 1 -16.487406269337786 11.708609346307032 -41.53854254111626 0 0 0
1541 1 13.560784871951022 18.26830773911232 -42.290987602304256 0 0 0
3050 1 7.517220289236965 50.72810824260601 -47.410748917703756 0 0 0
2011 1 39.68473079747998 5.388155119441431 -42.640408407559185 0 0 0
1758 1 35.716215873345575 7.353123256261485 -41.325946745228 0 0 0
50 1 4.032455424664283 21.39626231639304 -42.714935946031176 0 0 0
2048 1 25.21018721529591 24.191712119760496 -48.91576446071716 0 0 0
1729 1 28.351572467114718 64.37886216142502 -47.300317674497826 0 0 0
3618 1 7.12724269025231 -45.53455460100202 -46.90009358064037 0 0 0
105 1 -1.7628900319739826 -13.151891663808478 -38.33547700428384 0 0 0
1988 1 -1.2643463054941384 -14.038042925154613 -37.96667725356468 0 0 0
219 1 -10.771100285569403 -7.819329553801305 -44.75854119155177 0 0 0
1335 1 1.1037993466467402 -1.1345598868199338 -44.28682905998541 0 0 0
2231 1 11.072692612017208 10.049822669373297 -46.217671958365315 0 0 0
676 1 70.83363780718679 28.937832183445277 -32.44584391428871 0 0 0
1474 1 26.790320696907468 43.5710637954866 -40.69295733365556 0 0 0
866 1 26.945838208587364 43.106575333580984 -39.63692844457624 0 0 0
66 1 7.78318199913846 56.63635754740171 -35.877680978024685 0 0 0
2306 1 -24.690937825668957 -34.062275742225545 -42.65198978084924 0 0 0
918 1 5.885008547468155 -30.603958052180353 -41.70916609776559 0 0 0
2290 1 62.51341596475665 -24.260700039699042 -39.63975071383794 0 0 0
841 1 20.350064418575197 38.93527500941781 -40.73952604421257 0 0 0
1309 1 1.7338199693101082 47.85762903709041 -43.762931702292875 0 0 0
1823 1 18.960299095441776 -36.980482876274856 -36.60913521458012 0 0 0
1045 1 -10.34132474086827 -23.224682311240826 -37.32059040806818 0 0 0
2260 1 4.772105635688613 -23.787252336845004 -38.050231029816956 0 0 0
2322 1 36.02749047301795 -13.138775292393388 -34.28089719879631 0 0 0
2332 1 17.965709463214097 -14.832008447851583 -44.23818376757718 0 0 0
2567 1 31.505352243788998 1.6438708289549095 -44.86053849849222 0 0 0
408 1 12.943922960371724 10.285574298495387 -37.86486279292737 0 0 0
526 1 23.157556658021555 41.15029157789662 -42.14117630523992 0 0 0
3460 1 -6.639981969726436 -6.340812912017375 -36.70273895572155 0 0 0
169 1 -24.17353593201705 4.0673603287457665 -41.81194927195848 0 0 0
2598 1 -2.50027171074371 0.970475027638802 -35.70792807938725 0 0 0
509 1 41.83448944582456 4.285451311566174 -35.93389070185372 0 0 0
588 1 25.27169509695365 17.50538879236681 -36.98324009945756 0 0 0
581 1 53.523901611251084 17.484188245108097 -45.488200548940064 0 0 0
3219 1 -4.467505544920846 17.745237740107378 -39.87710482086539 0 0 0
1595 1 13.21306470843556 20.5155283097692 -36.210646423096414 0 0 0
2190 1 33.277145915820036 22.65721891418051 -36.884813245761805 0 0 0
378 1 37.154539557597836 25.48392164670068 -36.33906470106439 0 0 0
1067 1 -18.104429921101364 36.19406682584902 -34.05819730010155 0 0 0
300 1 30.51307263643986 41.61236273824657 -35.59665222253727 0 0 0
796 1 -49.69698258536323 39.474490134324896 -36.072615586606204 0 0 0
614 1 49.91631527706498 46.99379318711613 -36.81476163542686 0 0 0
670 1 -4.060358701867693 78.57302095671736 -39.31975754481452 0 0 0
3540 1 55.720983380964675 -22.2797340680706 -37.553368318085006 0 0 0
1834 1 55.33821092281272 -21.19504620021079 -38.0321797702191 0 0 0
460 1 32.572764898888984 -11.08498344342834 -39.05425458240854 0 0 0
1455 1 -25.11322789450674 -9.547491074404107 -35.539019928039416 0 0 0
2228 1 -24.953341532887386 -6.629596806387875 -35.538958583016736 0 0 0
763 1 -23.57836731489818 -7.203898869549541 -36.073314841134255 0 0 0
1787 1 3.0197492750930857 -3.674939117816847 -33.12669316278768 0 0 0
368 1 9.2399503645613 -5.468404239940347 -34.293698651396305 0 0 0
664 1 18.026574347348184 -0.5920202170398561 -34.228560455059736 0 0 0
1221 1 -45.64972137502776 -0.32558203474318076 -36.58458198645084 0 0 0
1496 1 16.009114273359128 11.303210151401958 -37.331991647081054 0 0 0
2693 1 26.750773574769404 17.660636203835626 -36.50506149282762 0 0 0
488 1 16.91182470806779 21.200786982841915 -31.828663663129145 0 0 0
31 1 53.6022321079074 24.121375708746083 -33.816821716152695 0 0 0
286 1 33.747602598757375 24.174607466365547 -38.37795261804583 0 0 0
356 1 28.473152440316735 25.721943766477178 -32.62749282689554 0 0 0
1034 1 -31.999637723954336 40.058128639034706 -37.536690822404466 0 0 0
573 1 25.722431309834327 44.12565160501202 -31.631333924295397 0 0 0
2300 1 -72.58478565810098 46.59313035490127 -33.71192527631358 0 0 0
4429 1 79.01050327099448 55.01002599228109 -37.60682529006225 0 0 0
1280 1 -16.01619617052366 61.8074199183043 -33.684874639300055 0 0 0
1580 1 -16.53602325878325 -33.98614727085434 -31.924345072390775 0 0 0
963 1 59.09074803591953 -26.89048050693719 -37.29390128188234 0 0 0
482 1 6.576880514008714 -7.189954486654681 -34.63161500011967 0 0 0
3508 1 -48.29521329507618 -0.3750794114395865 -36.52767628114463 0 0 0
2294 1 11.993878475528486 9.482726832835692 -32.05396272080095 0 0 0
906 1 34.72998219102638 6.114960594647159 -33.87859600673337 0 0 0
2116 1 22.352394925351135 5.74083762834933 -31.685914237287978 0 0 0
1516 1 37.458025320632444 10.835624876930197 -35.68662762546775 0 0 0
2885 1 2.414061006953533 14.958527080526808 -36.80236412240515 0 0 0
142 1 -61.141819643281444 15.404054783257852 -32.960663826450606 0 0 0
1318 1 -18.88210494942315 22.060666366164646 -34.56943480279678 0 0 0
1251 1 24.213545732831818 24.206984716031013 -33.91356958096905 0 0 0
1748 1 -9.75691912896944 31.3347531829698 -32.2137736624875 0 0 0
2628 1 14.63672491017455 44.56372891639829 -39.36828991818464 0 0 0
257 1 -19.78704346155907 43.30815107690476 -29.248263585858666 0 0 0
406 1 13.110167877850825 52.79022635204523 -36.96720556317005 0 0 0
1274 1 28.646933161365823 56.90848796546833 -28.853736641445796 0 0 0
1268 1 35.5012282534894 68.49603159764453 -35.73752412921004 0 0 0
1636 1 9.620930125030288 89.07933779831296 -35.57306880702981 0 0 0
470 1 10.407209353464438 -42.27517373052135 -34.38157955124993 0 0 0
76 1 23.80371996338349 -13.126314107257452 -30.1590630448367 0 0 0
1433 1 29.88116572952397 -10.089150969807688 -37.7717898390091 0 0 0
572 1 -4.29113892941403 -9.070792018088406 -33.86340361735056 0 0 0
3804 1 11.096446034895717 2.8630378030061494 -36.098515271344745 0 0 0
781 1 12.581819018537386 8.695583788897288 -32.76722401818951 0 0 0
1075 1 54.934141095831436 11.352848519804128 -32.726003986673994 0 0 0
748 1 -23.87104175529471 12.552699332888395 -34.505895652452985 0 0 0
2193 1 25.813911661162503 10.882077079257352 -29.405174225447 0 0 0
343 1 16.859808264777254 16.30235865263732 -31.98100024950531 0 0 0
18 1 -32.918564501997565 18.110633799187777 -32.682758601475186 0 0 0
336 1 21.885208615570043 19.132065797162998 -33.02321753489096 0 0 0
693 1 60.08446789593256 23.648880179774956 -36.92557673509238 0 0 0
423 1 -1.3382704043624682 20.754630243646528 -33.26157672861868 0 0 0
625 1 -11.573504830179125 25.61081602317111 -30.682268389092524 0 0 0
716 1 38.749538290414826 26.05334408935474 -31.02638632242528 0 0 0
4512 1 41.733499522004756 31.052658619831583 -33.929578792658226 0 0 0
2463 1 9.263836605432996 34.410764975980726 -31.595062182690064 0 0 0
3077 1 26.060772707746874 27.688988795086004 -30.205140674541543 0 0 0
2551 1 12.667982525732278 39.941331128356126 -34.07303157152614 0 0 0
1352 1 38.54864679533758 52.45804114316283 -28.357466878616375 0 0 0
98 1 45.22600221239604 54.014396689650255 -34.21430541103 0 0 0
486 1 -50.26655549744085 -35.18026155117321 -30.577559717338673 0 0 0
94 1 8.369352526859993 -25.380864800726933 -25.381426565274342 0 0 0
1342 1 11.837183042242309 -17.081715309492758 -32.07603192487224 0 0 0
2185 1 1.180291596176293 -19.22228470679219 -29.9511708775124 0 0 0
541 1 -1.2933405859473512 -7.049509826603601 -29.001123227757358 0 0 0
1071 1 23.929563086357334 -8.397044386067943 -32.028666577755246 0 0 0
1037 1 25.04453868872168 2.86185924119666 -31.844413742159112 0 0 0
3252 1 44.360301989048416 -3.0200753554370223 -33.41736107036849 0 0 0
2988 1 -17.01274700614359 -2.1703613153459336 -29.72008387440476 0 0 0
276 1 -9.962920372841754 2.56289748090186 -31.922047123992158 0 0 0
603 1 19.824011643176153 -3.4096732638844345 -34.20004490124106 0 0 0
2536 1 16.024674142797164 7.242690722587497 -26.209493095122472 0 0 0
365 1 28.373472445998004 16.688838872025098 -28.913369531125262 0 0 0
842 1 -32.08483570505523 17.541012780913995 -32.99889302448895 0 0 0
3946 1 33.03588378711601 27.20739081493013 -34.26424754347728 0 0 0
2178 1 39.65064411285729 25.753496370635485 -31.954744008413098 0 0 0
53 1 9.541995337631251 35.501802183656785 -31.512038138017886 0 0 0
856 1 -24.860984123374763 48.74820416612559 -31.698390860550692 0 0 0
320 1 22.63800118795331 65.36589512385345 -31.71691772917878 0 0 0
3380 1 36.6531248169637 68.73797774253195 -30.07554638310939 0 0 0
508 1 16.187372545125694 -53.3100167618808 -29.554304979012155 0 0 0
1014 1 7.87270513839547 -44.489325162392 -28.417531825113183 0 0 0
1061 1 14.991907373403025 -42.16977294618752 -28.682885636803917 0 0 0
594 1 -12.745822025152211 -31.706534931616094 -33.03718292112522 0 0 0
506 1 -2.810361886362257 -36.07431387456613 -30.437183218828856 0 0 0
1408 1 16.780838387392485 -22.010384629480342 -27.4613351471707 0 0 0
738 1 4.051051199927769 -24.090268536039588 -27.94567448502412 0 0 0
943 1 22.89207528942612 -16.973992835968893 -22.528828058823677 0 0 0
535 1 -31.083243426906876 -7.945541475618446 -30.885058795528508 0 0 0
37 1 -15.443347650251672 0.7043603211715816 -32.943712811768286 0 0 0
971 1 -8.191059125638603 3.258548395774314 -24.617662300640745 0 0 0
1630 1 17.544614033872435 2.140405035108475 -27.015980471983095 0 0 0
611 1 -8.269575645941075 4.154395771684509 -31.855089526089554 0 0 0
1328 1 44.84495254273971 8.252923413487322 -28.27072942695853 0 0 0
130 1 -6.136468776967252 6.640296159598753 -26.665391184313794 0 0 0
148 1 14.903529289546551 9.591336487595823 -27.51995660928306 0 0 0
421 1 25.210248780338052 6.482887759300666 -31.636824468439897 0 0 0
298 1 -53.27842286993357 14.108826825025073 -34.46590001529164 0 0 0
321 1 2.493674362180127 16.22229781912596 -26.69506494532737 0 0 0
2479 1 29.00288201991253 27.40534334760323 -29.02764563203404 0 0 0
799 1 23.304710267754505 34.080065291991076 -28.303405789439104 0 0 0
742 1 26.49139621558389 60.23756967382455 -29.029190137886644 0 0 0
1081 1 15.164034308983473 67.6528969049219 -29.15763093704987 0 0 0
4513 1 28.085414938591757 62.84841670393587 -29.694180365967217 0 0 0
2145 1 44.56945243201275 65.00081906421855 -29.712554085104312 0 0 0
990 1 -4.012106553293805 -71.73161663915981 -19.847338125387715 0 0 0
190 1 -34.69956714485056 -54.78126730791346 -30.63340768124284 0 0 0
1934 1 -15.850305560103635 -31.73612763236254 -29.208536984326187 0 0 0
515 1 -16.888994213272483 -31.51208962586542 -21.999480540683813 0 0 0
524 1 15.340621548857555 -31.245846420115285 -21.887656575635308 0 0 0
156 1 11.513912291572936 -27.257664549512494 -28.51412224831163 0 0 0
124 1 59.05360318112955 -20.95680661533177 -23.655537894191312 0 0 0
39 1 26.75965806604607 -12.460479557674226 -23.835962993418548 0 0 0
1441 1 29.321134161884743 -22.38001124045827 -27.984172168474743 0 0 0
3653 1 31.04687533739532 -13.937274277965912 -29.267680176454018 0 0 0
244 1 34.4870183866156 -0.04111193459552446 -28.9549131629885 0 0 0
728 1 21.096084749301195 5.610765628592056 -25.531388882084922 0 0 0
567 1 57.333986858756994 4.221190534525675 -28.839510530926407 0 0 0
117 1 24.143612007015186 4.095281297660477 -30.754615114136673 0 0 0
1608 1 10.449915775961125 15.144442993154232 -26.21446128526278 0 0 0
1169 1 17.599224912513243 18.09721688138071 -29.453506478068935 0 0 0
1675 1 26.38870789944943 13.98387556783787 -28.600299099553293 0 0 0
319 1 -10.086551117487863 21.920347876041838 -24.540282115774186 0 0 0
1702 1 -15.100330284898494 22.9114065349796 -30.50034459387209 0 0 0
391 1 -3.3552061790177 20.75004301019897 -28.128904432963793 0 0 0
576 1 -5.836450368066518 23.12018670591797 -27.29372909637546 0 0 0
585 1 -2.0608594592998584 29.388122000859827 -31.56001385871393 0 0 0
359 1 -36.847416791954345 29.049908665621533 -25.023961163886728 0 0 0
542 1 -1.1254312817740821 39.120032264085516 -26.73453357182396 0 0 0
29 1 6.657413739031809 40.12810820249081 -28.867496787578997 0 0 0
924 1 20.413981638763918 37.19675742730425 -26.904933767619692 0 0 0
1298 1 -11.614408427164852 41.253959744183206 -29.063807270432843 0 0 0
1104 1 39.196196200390865 45.738053541267504 -26.95353966018031 0 0 0
751 1 48.963295382409214 49.535100526746504 -20.866951145169967 0 0 0
2083 1 22.737040651820728 -52.36725954074126 -27.323303459098334 0 0 0
4224 1 -60.772746774731 -37.066644762058814 -25.002053300806125 0 0 0
34 1 -24.18008434941909 -20.243245344000513 -22.618903259900183 0 0 0
118 1 2.0917409841443906 -27.744981158377172 -25.06283703087061 0 0 0
2365 1 29.501972090779976 -21.32935700022552 -27.376969197317788 0 0 0
4 1 -2.228364405689007 -1.649738036445926 -24.44691273859134 0 0 0
1404 1 12.398702516290724 -5.615362275262479 -22.411697001894876 0 0 0
821 1 -10.723324270728412 5.841474150220465 -21.984521094115152 0 0 0
30 1 29.581933560715655 7.685893071211622 -19.9787312001219 0 0 0
809 1 59.10774197641548 12.150075039057995 -22.452261781138123 0 0 0
2107 1 -9.825180849065495 13.775866665861415 -26.506094953253452 0 0 0
1451 1 9.295902627608061 19.78706353483402 -23.80181992542109 0 0 0
106 1 8.590522767084023 19.04322643423405 -24.072486544878387 0 0 0
2378 1 16.128886520169353 15.378580230152217 -22.074272671760284 0 0 0
2639 1 -24.757715558405728 25.582487326479235 -32.17280810760647 0 0 0
864 1 -11.500869693338002 20.893320269347488 -23.936228663751407 0 0 0
1186 1 -5.4033006016010106 21.942961697048414 -26.534888818091456 0 0 0
2581 1 30.898323238463934 19.652165616330485 -27.99910186412078 0 0 0
1503 1 -17.703776621999648 35.19360822876823 -24.613994256252102 0 0 0
2176 1 54.690536025273644 60.92702985908284 -28.416302438583802 0 0 0
17 1 18.536706759244733 -28.67614080094255 -21.229839294560925 0 0 0
973 1 -26.375990226290828 -19.1615344368547 -26.72148931462996 0 0 0
2252 1 -25.153625831471654 -16.248057286858838 -23.851914091807135 0 0 0
89 1 3.7375708562476797 -15.605245886681816 -25.73900068080944 0 0 0
126 1 17.178276276403945 -8.268935007338346 -23.6464596008176 0 0 0
578 1 1.9332426521859656 -6.35944399140467 -23.515318598838217 0 0 0
223 1 25.553300924727882 -5.507486122732712 -21.995027525036004 0 0 0
425 1 -24.762367663769638 -1.6022312835181252 -23.5364822243814 0 0 0
4006 1 38.919455530996736 7.804982166649808 -25.997579664966363 0 0 0
2292 1 -62.59029065090313 5.928253353657224 -22.18443124627696 0 0 0
1128 1 -9.723948777282917 3.872580631008013 -23.3621058227452 0 0 0
480 1 37.893520549097325 14.1365873685212 -21.553127827939125 0 0 0
2338 1 -42.737271626533264 16.76243241628698 -22.41147718215774 0 0 0
302 1 4.997964930533222 13.000713032323318 -24.19873116931544 0 0 0
626 1 -0.746380277879446 14.791778692366703 -29.04084045151663 0 0 0
648 1 -32.99488402999172 21.89405528875513 -24.75936102872285 0 0 0
2156 1 64.77540544072615 23.967368287712144 -21.580752323296462 0 0 0
2241 1 25.858996816422614 23.690745667380007 -25.00272343369222 0 0 0
281 1 -17.085326958848256 30.50915068041068 -30.27335574845123 0 0 0
312 1 -11.528791855658483 28.41798525514008 -20.11513766914018 0 0 0
360 1 6.878040269322454 22.110551223575676 -23.175552736201347 0 0 0
366 1 35.7556784271407 33.89173087002001 -24.29584106506775 0 0 0
715 1 -13.330647247666318 35.01244891369691 -26.90910560941001 0 0 0
2041 1 -9.843883229523351 45.57318967137075 -23.05310475174279 0 0 0
1230 1 -17.368889966020426 52.80916267062742 -28.66648216956293 0 0 0
2609 1 -1.4249302924541722 49.00224778447471 -26.90224412792372 0 0 0
1041 1 -0.9760066335352778 52.299148080748175 -24.536988944248456 0 0 0
426 1 -20.711004437911658 64.30581865680925 -25.909532182510638 0 0 0
427 1 0.9206412573022886 67.77723544896638 -27.777205553884873 0 0 0
3100 1 12.70921213470701 -40.60310148228683 -24.750407321506284 0 0 0
1330 1 -21.5318377858955 -33.16400040407746 -22.18565162971251 0 0 0
584 1 -19.31722956893848 -27.65105016952689 -20.112960148336782 0 0 0
1839 1 37.880917666199565 -24.704220632691204 -21.218988501599156 0 0 0
2664 1 20.16898924247846 -19.093633105945354 -21.445586485186908 0 0 0
3549 1 19.085059628512123 -19.19122914905309 -20.744198921539414 0 0 0
1020 1 -10.232110636801723 -13.988597894169358 -22.796747948739977 0 0 0
1000 1 17.092741727881258 -18.16165571813586 -23.02963311876651 0 0 0
984 1 4.120284912727253 -13.05236803337237 -22.586508896478357 0 0 0
38 1 22.01835033846577 -12.954232606110558 -22.93187476372421 0 0 0
623 1 18.177073166110905 -8.420043994279844 -20.0578867035197 0 0 0
108 1 4.897159406472885 -2.0749478943326185 -21.086005397074963 0 0 0
553 1 6.271186532893978 -5.102579663626584 -24.93748171884254 0 0 0
2671 1 50.621883387665626 -3.1441881954013775 -20.582088128826413 0 0 0
4011 1 20.46123535963419 -1.52204780056596 -25.533406387562614 0 0 0
4504 1 30.096214127757552 4.687580708072633 -22.66143780404453 0 0 0
1155 1 29.137521661147222 5.772900774210565 -21.598214563211066 0 0 0
643 1 28.08008729397142 5.8956803931590835 -21.188798488947928 0 0 0
897 1 -47.321583990331604 8.767423366914432 -23.063042702688012 0 0 0
1210 1 -2.2951996119517357 11.285821429072769 -16.92125185029142 0 0 0
1801 1 -32.240377790227186 16.95289161604481 -21.67367898053272 0 0 0
2088 1 37.35630278688015 23.975502939653747 -19.899000409515867 0 0 0
703 1 -37.88331046946363 32.965744679954206 -21.905543643503407 0 0 0
2149 1 6.940430316052965 30.580026707037206 -19.78946072929038 0 0 0
3008 1 22.308534832681104 38.51028235675376 -26.041725220808107 0 0 0
2621 1 50.241543893639694 54.795107339352114 -23.112013364294004 0 0 0
4077 1 44.23900528817075 -49.03450732343999 -20.621430303964303 0 0 0
1427 1 -36.75644547185319 -48.57165412526998 -22.995792648877025 0 0 0
3603 1 56.855102151759496 -39.60755191691732 -21.035391617595018 0 0 0
361 1 2.022776904094153 -37.39559799397036 -22.652611169492804 0 0 0
888 1 4.961751779586435 -31.314662336570084 -19.979411616536797 0 0 0
483 1 58.570111044032544 -21.134513702028535 -18.768787466762344 0 0 0
54 1 -4.085793263234095 -19.728914539730628 -19.941020360600525 0 0 0
688 1 28.71036463300963 -10.873499851312367 -19.879104785152546 0 0 0
1994 1 29.687088675989518 -11.786727430892133 -20.268459222532357 0 0 0
1902 1 28.438152392482117 -12.37746317273475 -20.244514917578233 0 0 0
786 1 1.3857651772446982 -15.506056574692305 -14.401142862289756 0 0 0
1771 1 -12.050617572185716 -2.4791440120894737 -18.964298156711905 0 0 0
1672 1 4.562098342174675 -4.974004652982501 -16.15518592956298 0 0 0
1460 1 9.932975986024154 0.7840930004483302 -18.231892301978835 0 0 0
1632 1 -20.918764497749788 1.5196970207637994 -21.87749991882398 0 0 0
659 1 -30.087247372312472 10.187956828305131 -24.267525067677088 0 0 0
2835 1 56.6016773200176 4.4148788998401445 -22.526376641285996 0 0 0
2019 1 17.1144113759409 14.810841025451639 -22.011348050688856 0 0 0
2419 1 -3.3373610359217527 16.891067162691957 -23.462774288833945 0 0 0
3229 1 -26.589015522116537 15.514696231665091 -20.326764823618475 0 0 0
1575 1 18.216985863454376 14.989057673710295 -18.5765707510937 0 0 0
764 1 -14.013277834670385 16.67138054858306 -20.395558831302523 0 0 0
2617 1 9.804204977079273 24.69802969161422 -19.63453380885267 0 0 0
225 1 -16.8045629450336 25.233243409627935 -24.07837588343992 0 0 0
335 1 38.436580669981254 25.648134738365464 -20.798875193162118 0 0 0
3784 1 0.6424052622030695 28.162715783869963 -18.029375521782814 0 0 0
845 1 51.57549091324074 25.90947351044848 -20.311309006507905 0 0 0
1178 1 7.225152604666523 53.237508004420775 -22.3669163336267 0 0 0
400 1 49.29161492641208 55.546317995489176 -22.76680706232285 0 0 0
410 1 -0.908443191824506 64.2999014183967 -22.271213606382137 0 0 0
407 1 7.07029427202554 62.57072175898623 -19.045088404139136 0 0 0
2202 1 44.1465379270458 69.16273796362631 -16.689412884008348 0 0 0
9 1 -24.35785150077926 -68.36943832769404 -19.132926973811408 0 0 0
653 1 -1.508849733088312 -47.13099173870896 -20.337628108982482 0 0 0
2213 1 -17.165120655550467 -47.845576855240374 -16.822154513017942 0 0 0
886 1 -20.410507761604897 -36.89858276037234 -20.28518448160975 0 0 0
2237 1 -2.652958770820098 -36.15476310502819 -20.94355464903174 0 0 0
2743 1 -23.73903433369771 -37.35240196071892 -18.7350368003141 0 0 0
3148 1 9.959309018076338 -22.702727046691727 -13.956664180873785 0 0 0
2330 1 20.37379298943745 -17.25341453245654 -19.482251719403994 0 0 0
1029 1 -3.6773138485813313 -18.814702541571005 -20.415040421990867 0 0 0
253 1 -45.370420187505175 -16.30198584788892 -25.15819625962827 0 0 0
2307 1 -1.4048995672372357 -6.761040357366737 -18.15372800458225 0 0 0
2464 1 -7.6405866760394625 -10.630566795068436 -21.728944028096908 0 0 0
988 1 0.459220261658103 -6.214920758322763 -15.108047138218186 0 0 0
3210 1 82.95388816164069 -3.0730358869841607 -21.4144042938642 0 0 0
1941 1 37.39443370161301 -6.264332577340675 -25.05960695027542 0 0 0
1639 1 -2.5147669341470875 -2.280943420724129 -21.56134106519417 0 0 0
216 1 11.823780335645575 -8.129260780400665 -17.473954998555396 0 0 0
311 1 31.956384823138855 -0.11087021784479396 -16.40884652635941 0 0 0
44 1 -6.685669368544038 1.4661949500772462 -15.407319453765062 0 0 0
185 1 21.498522344559557 6.097900288791573 -17.49144348726583 0 0 0
569 1 -6.0975302507731355 1.8268367175840652 -16.45891129595101 0 0 0
1100 1 56.227354408104674 3.1601711274253743 -18.091333276977043 0 0 0
1574 1 59.75041193824732 3.7909246196514004 -12.93713983643375 0 0 0
141 1 -0.3824958130226479 14.499046607753861 -16.949361760115902 0 0 0
966 1 25.680348175558446 13.761545812660097 -19.447021741400686 0 0 0
86 1 -31.02840735429028 19.20325528522086 -19.156889292566493 0 0 0
413 1 10.46424395919047 15.966332345784238 -11.574203421183444 0 0 0
305 1 11.472606524163234 22.321577775094813 -15.513757470804736 0 0 0
2331 1 43.08024734251618 18.965702974760134 -20.88005056797151 0 0 0
2556 1 25.062761600841924 33.585178193024454 -22.396532533825532 0 0 0
857 1 43.48807778784894 30.898176040041026 -13.485429847885776 0 0 0
561 1 -16.547680036468474 41.06661825748937 -23.204185664505374 0 0 0
386 1 -2.3029197757317452 37.602710811262696 -22.431694390748316 0 0 0
3015 1 -3.0323817416789827 44.74980259616102 -14.617083969226478 0 0 0
123 1 31.279310447630333 54.699280181711174 -14.367403738608001 0 0 0
876 1 41.3886787691307 62.74738205714114 -15.94671040888157 0 0 0
2490 1 44.146467061432844 71.61157807216304 -20.75252380546436 0 0 0
3163 1 50.31770558880705 76.40483236386896 -22.03049101743897 0 0 0
3551 1 28.25191669072439 -56.52510671983342 -18.953796471707467 0 0 0
3545 1 41.75308749271021 -51.74574305253117 -21.913909139339154 0 0 0
80 1 35.85449195845109 -28.437671437113863 -21.837465614324234 0 0 0
165 1 38.173820532481905 -32.54253658739809 -18.194854687271523 0 0 0
774 1 -13.016099013928537 -15.931562444461257 -15.459767761109964 0 0 0
2684 1 -6.449590554667154 -6.304526108505356 -12.099379657463667 0 0 0
188 1 17.938096360415692 -8.782302931326928 -15.444346230705499 0 0 0
1399 1 26.865153805465827 -0.7340056358603186 -14.990356406762643 0 0 0
1048 1 41.57799077227549 -5.728439945844232 -14.104381780465083 0 0 0
1978 1 23.707237764709614 -1.7828198398106059 -15.283550973057489 0 0 0
345 1 -5.916565255194902 1.207052580113852 -17.27987966107955 0 0 0
263 1 -5.528253266213619 2.183867768639493 -15.365027818843437 0 0 0
176 1 -18.703588000702165 8.866872503313486 -18.854842473626075 0 0 0
2691 1 -19.565664718068867 8.987421828034048 -18.118645042784166 0 0 0
3027 1 -4.250499865554226 3.6728474792267507 -17.304792221745966 0 0 0
243 1 -5.307799691912968 3.742751696306257 -16.679803831930894 0 0 0
2112 1 2.7477855870328485 5.993128100415416 -18.055237333580404 0 0 0
412 1 9.546502597353475 10.28774883899284 -19.256353880621766 0 0 0
1804 1 55.02751402606381 9.915283148477819 -19.67855467953516 0 0 0
3583 1 25.03712973072448 15.024489881350949 -20.835021436649683 0 0 0
2362 1 15.067603757369719 13.92277015711682 -17.183992448946796 0 0 0
2203 1 16.072838976188475 14.453244712105091 -17.03015997358351 0 0 0
1308 1 14.189054759675713 13.195459433368324 -17.40485316326149 0 0 0
3413 1 24.915632557942576 14.199695917209443 -20.16432656427121 0 0 0
1559 1 14.273206363577222 11.941947361623855 -19.41053821289894 0 0 0
1757 1 8.020217714995157 15.724797611764116 -18.91341270825143 0 0 0
1932 1 72.3840582358485 19.98575770883524 -17.989472311153524 0 0 0
1232 1 -17.92300080396345 15.718375753111772 -12.970005849723192 0 0 0
420 1 0.7520356796785053 27.197296461766328 -19.643497418526895 0 0 0
1256 1 30.595626830330907 24.44070260186233 -20.751145734732415 0 0 0
1970 1 49.31487616024487 29.740103238628215 -16.321428295981953 0 0 0
3654 1 58.57399648678758 24.905798308131203 -17.55391145287636 0 0 0